/*--------------------------------*- C++ -*----------------------------------*\
  =========                 |
  \\      /  F ield         | OpenFOAM: The Open Source CFD Toolbox
   \\    /   O peration     | Website:  https://openfoam.org
    \\  /    A nd           | Version:  10
     \\/     M anipulation  |
\*---------------------------------------------------------------------------*/
FoamFile
{
    format      ascii;
    class       volScalarField;
    location    "5";
    object      T;
}
// * * * * * * * * * * * * * * * * * * * * * * * * * * * * * * * * * * * * * //

dimensions      [0 0 0 1 0 0 0];

internalField   nonuniform List<scalar> 
96305
(
0.632208
0.261924
0.078221
0.0180011
0.00334575
0.000519807
6.92524e-05
8.06725e-06
8.34513e-07
7.76419e-08
6.56651e-09
5.09418e-10
3.65373e-11
2.43988e-12
1.52651e-13
8.99759e-15
5.01955e-16
2.65996e-17
1.34224e-18
6.45898e-20
2.96665e-21
1.30098e-22
5.44844e-24
2.17924e-25
8.32715e-27
3.04599e-28
1.06646e-29
3.57339e-31
1.1477e-32
3.52399e-34
0.632233
0.261916
0.0782053
0.0179932
0.00334349
0.000519405
6.91985e-05
8.06025e-06
8.3363e-07
7.75357e-08
6.5546e-09
5.0817e-10
3.64182e-11
2.42968e-12
1.5188e-13
8.94708e-15
4.99109e-16
2.64632e-17
1.3368e-18
6.44214e-20
2.96385e-21
1.30204e-22
5.4628e-24
2.18918e-25
8.38458e-27
3.07436e-28
1.07913e-29
3.62288e-31
1.16506e-32
3.5775e-34
0.632253
0.2619
0.0781881
0.0179873
0.00334212
0.000519276
6.91944e-05
8.05991e-06
8.33563e-07
7.75256e-08
6.55213e-09
5.07675e-10
3.63466e-11
2.42182e-12
1.51209e-13
8.90239e-15
4.96884e-16
2.6394e-17
1.33721e-18
6.46643e-20
2.98542e-21
1.31554e-22
5.53284e-24
2.22074e-25
8.50389e-27
3.1106e-28
1.08869e-29
3.64178e-31
1.16561e-32
3.55464e-34
0.632286
0.261785
0.0780569
0.0179221
0.00332815
0.000515743
6.84971e-05
7.94875e-06
8.19145e-07
7.59426e-08
6.39933e-09
4.94327e-10
3.52752e-11
2.34297e-12
1.45972e-13
8.59788e-15
4.8217e-16
2.58704e-17
1.33052e-18
6.55791e-20
3.09493e-21
1.39744e-22
6.03513e-24
2.49272e-25
9.8383e-27
3.71356e-28
1.33656e-29
4.55894e-31
1.48073e-32
4.57224e-34
0.632539
0.261591
0.0778576
0.0176761
0.00494252
0.000202488
5.13231e-06
9.18639e-08
1.39878e-09
3.04758e-11
1.47718e-12
9.52876e-14
5.98884e-15
3.4993e-16
1.89643e-17
9.53015e-19
4.40942e-20
1.84085e-21
6.56992e-23
1.67972e-24
-2.20096e-27
-4.23261e-27
9.56354e-27
1.22789e-27
7.56425e-29
3.5956e-30
4.83393e-32
2.43188e-33
1.02399e-34
3.78174e-36
0.632576
0.261462
0.0776922
0.0176025
0.00491679
0.000204419
5.32647e-06
9.79677e-08
1.37587e-09
1.53529e-11
1.39644e-13
1.05199e-15
6.65529e-18
3.59592e-20
1.70226e-22
7.39993e-25
3.37257e-27
2.29277e-29
1.09085e-31
-1.9609e-32
-1.92797e-33
-1.24834e-34
4.06976e-32
2.61701e-32
3.50777e-33
2.47702e-34
1.18565e-34
9.33215e-36
4.9705e-37
2.10731e-38
0.632626
0.2614
0.0776005
0.017549
0.00488959
0.000202225
5.23485e-06
9.53909e-08
1.32989e-09
1.47334e-11
1.32403e-13
9.74852e-16
5.92022e-18
2.99908e-20
1.30155e-22
5.10734e-25
1.91438e-27
6.72239e-30
2.10228e-32
5.91777e-35
1.55992e-37
3.89803e-40
9.48602e-39
2.16913e-37
9.03515e-38
1.21857e-38
2.9303e-37
2.91379e-38
1.76773e-39
7.90641e-41
0.632682
0.261308
0.0774544
0.0174592
0.00484098
0.000197523
5.01666e-06
8.95673e-08
1.22532e-09
1.33318e-11
1.17132e-13
8.32356e-16
4.7626e-18
2.17982e-20
7.9181e-23
2.22477e-25
5.43625e-28
2.43745e-30
2.11791e-32
1.47159e-34
1.68101e-36
1.03687e-38
4.13339e-41
1.13133e-43
5.53093e-44
5.92611e-44
6.28147e-40
7.38097e-41
5.01502e-42
2.36768e-43
0.632752
0.261153
0.0772213
0.0173119
0.00475801
0.000189002
4.61833e-06
7.90266e-08
1.03993e-09
1.09641e-11
9.31703e-14
6.1807e-16
2.99113e-18
9.42927e-21
1.6206e-23
2.0336e-26
-7.47337e-30
1.96954e-32
-2.85181e-34
-1.29043e-36
-4.96413e-39
1.4038e-39
6.96749e-39
2.69848e-41
7.68671e-44
-9.11198e-42
1.6446e-36
4.51783e-38
9.65213e-40
1.81111e-41
0.632831
0.260911
0.0768582
0.017077
0.00462157
0.000174555
3.95004e-06
6.18216e-08
7.48481e-10
7.09e-12
4.74323e-14
1.97457e-16
4.74636e-19
7.37819e-22
1.14035e-24
-3.76196e-27
1.61913e-31
1.64739e-37
1.11627e-40
3.01321e-45
-4.12739e-48
7.91115e-35
1.69039e-33
3.27721e-35
9.53156e-39
-1.10259e-38
1.17384e-31
7.48881e-34
5.4606e-36
4.79096e-38
0.632933
0.260556
0.0763256
0.0167262
0.00441197
0.000152044
2.95217e-06
3.7899e-08
3.53011e-10
2.4654e-12
1.6192e-14
1.23853e-16
9.45193e-19
5.02827e-21
1.3684e-23
-1.27133e-26
8.91876e-31
2.11598e-42
6.13916e-31
1.97415e-29
1.29149e-30
1.09016e-32
6.78768e-32
2.81618e-28
3.98942e-30
4.20516e-32
3.59382e-34
0.633066
0.26009
0.0756173
0.0162507
0.00411809
0.000120926
1.72658e-06
1.34078e-08
8.88128e-11
3.78098e-12
1.49776e-13
3.03901e-15
3.72809e-17
3.39411e-19
3.21706e-21
-5.91594e-24
3.09415e-29
8.67247e-39
3.56123e-27
1.84259e-25
1.27957e-26
1.41358e-28
1.04048e-29
7.10851e-26
1.29862e-27
1.6886e-29
1.79977e-31
0.633218
0.25957
0.0748045
0.0156964
0.00376198
8.52029e-05
6.25514e-07
1.10777e-09
5.36831e-12
5.98147e-14
8.69477e-17
5.34398e-17
2.69703e-18
3.83663e-12
3.01734e-14
7.27899e-18
4.11635e-23
1.17856e-34
6.24135e-23
2.4594e-21
1.04812e-22
1.12114e-24
5.266e-27
1.62768e-23
3.54293e-25
5.56196e-27
6.66253e-29
0.63337
0.259106
0.0740642
0.0151865
0.00341925
5.4628e-05
8.79253e-08
8.63202e-11
8.90319e-11
1.37078e-06
1.03484e-09
-4.78296e-10
-2.5009e-14
-4.23487e-18
1.61744e-14
3.69285e-14
-1.13551e-19
7.07856e-16
5.07547e-17
8.80287e-19
8.00995e-21
4.12934e-23
4.79373e-21
1.10805e-22
1.82057e-24
2.32462e-26
0.633455
0.258824
0.0736158
0.0148773
0.00319628
3.76796e-05
1.14152e-09
9.43293e-11
1.33853e-05
0.00373917
0.00550367
0.0497063
0.009351
0.000930239
4.49509e-05
1.26933e-06
1.82274e-08
1.73504e-10
1.17252e-12
5.73695e-15
3.4853e-17
1.97676e-19
2.78135e-18
5.14033e-20
8.23804e-22
1.15967e-23
0.633455
0.258826
0.0736158
0.0148768
0.00316819
3.45465e-05
1.03596e-09
7.75152e-11
0.317906
117.768
1761.97
12838.1
1.74867
0.140133
0.00936572
0.000417386
1.19791e-05
2.29226e-07
3.00822e-09
2.69121e-11
1.62874e-13
8.57246e-16
1.65594e-16
3.13953e-18
5.09329e-20
7.13759e-22
0.633369
0.259101
0.0740596
0.0151839
0.00334464
4.477e-05
6.8782e-09
1.23923e-10
0.00229008
0.0194898
0.000304163
-0.00218328
-0.000110405
0.000235525
3.40998e-05
3.29677e-05
1.3708e-07
1.77375e-10
4.24481e-12
4.83576e-14
3.40798e-16
1.46977e-18
6.99873e-19
1.83646e-20
3.29088e-22
4.50854e-24
0.63322
0.259567
0.0747981
0.0156924
0.00366738
6.96459e-05
2.85246e-07
2.39159e-11
4.352e-14
1.49259e-19
5.54748e-24
7.64343e-20
8.51444e-09
1.13994e-05
2.59727e-08
-1.71138e-10
1.19104e-13
-5.09957e-18
9.7766e-14
7.27737e-13
-5.96576e-20
7.08584e-19
4.44483e-17
5.27345e-18
7.39278e-20
3.72906e-22
3.89896e-21
1.00074e-22
1.69384e-24
2.04217e-26
0.633065
0.260084
0.0756078
0.0162451
0.00403086
0.000104418
1.13663e-06
5.32115e-09
1.09923e-10
8.15398e-12
2.06747e-13
2.30776e-15
7.56345e-16
2.17583e-13
5.32837e-15
9.6192e-18
1.65868e-22
-1.58674e-35
2.49798e-25
6.90975e-22
5.45184e-22
1.30585e-23
6.98654e-26
2.44925e-23
5.61176e-25
7.99462e-27
7.70532e-29
0.632936
0.260547
0.0763154
0.0167195
0.00434525
0.000138472
2.35574e-06
2.481e-08
1.84208e-10
1.61806e-12
2.77696e-14
7.31336e-16
1.08805e-17
8.22804e-20
4.92769e-22
-3.13974e-25
2.64648e-28
7.29073e-41
8.95386e-30
1.48806e-26
4.81575e-26
1.89748e-27
1.17589e-28
1.55174e-25
3.20603e-27
3.76451e-29
2.51307e-31
0.632829
0.260895
0.0768411
0.0170689
0.00457429
0.000164806
3.48159e-06
5.01149e-08
5.48317e-10
4.36085e-12
2.34424e-14
9.18645e-17
2.99444e-19
8.37005e-22
1.87556e-24
-4.58231e-27
4.28492e-31
6.41528e-45
6.49572e-35
1.29593e-31
2.46947e-30
1.74734e-31
1.16896e-30
8.76174e-28
1.66218e-29
1.62575e-31
8.06657e-34
0.63279
0.261165
0.0772166
0.0173058
0.004726
0.000182475
4.29653e-06
7.05062e-08
8.92256e-10
9.05979e-12
7.14394e-14
3.98524e-16
1.3844e-18
2.59151e-21
2.78313e-24
-7.54683e-27
2.3784e-30
3.63373e-36
4.22971e-39
1.87854e-43
-3.32829e-45
4.3806e-43
2.68066e-39
1.01359e-35
8.52847e-36
4.02038e-33
2.87688e-30
5.32774e-32
4.49032e-34
2.13627e-36
0.632651
0.261302
0.0774446
0.0174515
0.00481941
0.00019325
4.80632e-06
8.3862e-08
1.12185e-09
1.19451e-11
1.02535e-13
7.05168e-16
3.7956e-18
1.52443e-20
4.19491e-23
7.47525e-26
1.77785e-28
2.47742e-29
4.48147e-31
3.28465e-33
1.51453e-35
4.92887e-38
1.11219e-40
3.91598e-42
4.41413e-41
1.29508e-37
2.74233e-33
9.7852e-35
2.15354e-36
4.10999e-38
0.632629
0.261375
0.0775839
0.0175412
0.00487391
0.000199316
5.09392e-06
9.15562e-08
1.25827e-09
1.3727e-11
1.20991e-13
8.65843e-16
5.04132e-18
2.40267e-20
9.5871e-23
3.33258e-25
1.02792e-27
3.04387e-30
1.01405e-32
3.76586e-35
1.4771e-37
5.28511e-40
1.66232e-42
4.92729e-45
1.89674e-45
6.13616e-43
2.98517e-36
1.17261e-37
2.83277e-39
6.35542e-41
0.632579
0.261457
0.0776808
0.0175941
0.00490701
0.000202772
5.25144e-06
9.56964e-08
1.33226e-09
1.47208e-11
1.32031e-13
9.7409e-16
5.97524e-18
3.0904e-20
1.38308e-22
5.60831e-25
2.19099e-27
8.42846e-30
3.02925e-32
9.38242e-35
7.01865e-38
-1.05838e-38
-1.03653e-39
3.48123e-39
1.56471e-38
6.30025e-39
6.62427e-36
6.4166e-37
4.18021e-38
2.2805e-39
0.632542
0.261583
0.0778463
0.0176686
0.00492169
0.000202766
5.23977e-06
9.52654e-08
1.32041e-09
1.45276e-11
1.30531e-13
9.86581e-16
7.03099e-18
8.13758e-20
2.47358e-21
1.01651e-22
3.91094e-24
1.24078e-25
2.13469e-27
-9.87662e-29
-1.42571e-29
-1.0846e-30
-6.67758e-32
2.40303e-32
2.348e-32
2.81775e-33
1.07681e-32
6.0484e-34
2.82233e-35
1.17914e-36
0.632289
0.261778
0.0780457
0.0179148
0.00332509
0.000514879
6.83043e-05
7.91347e-06
8.13699e-07
7.5214e-08
6.31388e-09
4.85429e-10
3.44353e-11
2.27132e-12
1.40359e-13
8.19135e-15
4.546e-16
2.41127e-17
1.22443e-18
5.948e-20
2.76047e-21
1.22314e-22
5.1742e-24
2.0914e-25
8.08994e-27
2.99941e-28
1.06458e-29
3.60873e-31
1.17096e-32
3.632e-34
0.632256
0.261893
0.0781766
0.0179797
0.00333899
0.000518357
6.89855e-05
8.02123e-06
8.27581e-07
7.67276e-08
6.45879e-09
4.97981e-10
3.54413e-11
2.34454e-12
1.45153e-13
8.46308e-15
4.67224e-16
2.45144e-17
1.22496e-18
5.83366e-20
2.64766e-21
1.14536e-22
4.72488e-24
1.86076e-25
7.00142e-27
2.5201e-28
8.68546e-30
2.8692e-31
9.10212e-33
2.7709e-34
0.632237
0.261909
0.078195
0.017986
0.00334044
0.0005185
6.8993e-05
8.02222e-06
8.27749e-07
7.67527e-08
6.46381e-09
4.98697e-10
3.55328e-11
2.35435e-12
1.46009e-13
8.522e-15
4.70482e-16
2.46571e-17
1.22962e-18
5.84297e-20
2.64748e-21
1.14448e-22
4.72384e-24
1.86348e-25
7.03382e-27
2.54238e-28
8.81022e-30
2.92824e-31
9.35115e-33
2.87362e-34
0.632211
0.261918
0.0782101
0.0179936
0.00334266
0.000518893
6.90465e-05
8.02929e-06
8.28673e-07
7.68672e-08
6.47647e-09
5.00144e-10
3.56714e-11
2.36655e-12
1.46931e-13
8.58593e-15
4.74324e-16
2.48652e-17
1.24e-18
5.89176e-20
2.67e-21
1.15489e-22
4.77183e-24
1.88521e-25
7.12719e-27
2.58185e-28
8.96641e-30
2.98768e-31
9.57917e-33
2.95751e-34
0.632992
0.266415
0.0822922
0.0199954
0.00400342
0.000682373
0.000101409
1.33796e-05
1.58967e-06
1.72061e-07
1.71277e-08
1.58064e-09
1.3616e-10
1.10132e-11
8.40736e-13
6.08398e-14
4.18824e-15
2.75012e-16
1.72551e-17
1.03552e-18
5.94726e-20
3.26906e-21
1.71981e-22
8.65917e-24
4.17283e-25
1.92529e-26
8.50599e-28
3.60061e-29
1.46265e-30
5.69509e-32
0.632971
0.266418
0.0823099
0.0200086
0.0040091
0.000684056
0.000101782
1.3446e-05
1.5997e-06
1.73388e-07
1.72849e-08
1.5976e-09
1.37849e-10
1.11708e-11
8.54678e-13
6.20184e-14
4.2839e-15
2.82443e-16
1.78044e-17
1.07395e-18
6.20114e-20
3.42712e-21
1.81272e-22
9.17466e-24
4.44289e-25
2.05908e-26
9.13603e-28
3.88192e-29
1.58227e-30
6.1795e-32
0.632924
0.266424
0.0823515
0.0200393
0.0040221
0.000687856
0.000102616
1.35958e-05
1.62275e-06
1.76518e-07
1.76643e-08
1.63927e-09
1.42046e-10
1.15643e-11
8.8942e-13
6.49409e-14
4.5193e-15
3.00587e-16
1.91367e-17
1.16667e-18
6.81177e-20
3.80712e-21
2.0365e-22
1.04206e-23
5.09981e-25
2.3865e-26
1.06839e-27
4.57696e-29
1.87937e-30
7.38803e-32
0.63283
0.266406
0.082407
0.020094
0.00404888
0.000693314
0.000103438
1.37026e-05
1.63559e-06
1.77951e-07
1.78114e-08
1.65274e-09
1.43134e-10
1.1642e-11
8.94648e-13
6.53226e-14
4.55382e-15
3.04108e-16
1.94816e-17
1.19708e-18
7.05135e-20
3.97863e-21
2.14926e-22
1.11067e-23
5.48549e-25
2.58759e-26
1.16599e-27
5.02191e-29
2.07131e-30
8.17757e-32
0.63274
0.266341
0.0824504
0.0201646
0.00694376
0.000567788
3.0834e-05
1.1881e-06
3.42698e-08
7.94821e-10
1.77722e-11
5.8778e-13
3.38524e-14
2.37149e-15
1.65999e-16
1.11942e-17
7.25751e-19
4.53e-20
2.72092e-21
1.57061e-22
8.70323e-24
4.6313e-25
2.36518e-26
1.15806e-27
5.34067e-28
8.25401e-29
1.95163e-30
1.31371e-31
7.30453e-33
3.55285e-34
0.632621
0.266318
0.0825097
0.0202203
0.00698417
0.000574932
3.14332e-05
1.21713e-06
3.49799e-08
7.75589e-10
1.36672e-11
1.95897e-13
2.32831e-15
2.33686e-17
2.01977e-19
1.53738e-21
1.05542e-23
6.69096e-26
4.19083e-28
3.92649e-30
1.03982e-31
4.49743e-33
2.02552e-34
8.84476e-36
2.52513e-34
3.18972e-34
2.28596e-33
2.5751e-34
1.89775e-35
1.1078e-36
0.632527
0.26631
0.0825575
0.0202571
0.0070078
0.00057986
3.19513e-05
1.24998e-06
3.6392e-08
8.19259e-10
1.4669e-11
2.1325e-13
2.55817e-15
2.5726e-17
2.21307e-19
1.6769e-21
1.16121e-23
7.51662e-26
4.47996e-28
2.38455e-30
1.11649e-32
4.59166e-35
1.65954e-37
5.28992e-40
1.99707e-40
1.37031e-39
3.79101e-36
5.69522e-37
5.04298e-38
3.31392e-39
0.632422
0.26628
0.0825786
0.0202761
0.00701938
0.000582493
3.22784e-05
1.27491e-06
3.76688e-08
8.64823e-10
1.58282e-11
2.34657e-13
2.84647e-15
2.85164e-17
2.39735e-19
1.74802e-21
1.16554e-23
7.45885e-26
4.49978e-28
2.42501e-30
1.15538e-32
4.95846e-35
1.92574e-37
6.67264e-40
2.01353e-42
3.01774e-44
1.08154e-38
1.87614e-39
1.84184e-40
1.26664e-41
0.632297
0.266213
0.0825604
0.0202689
0.00701254
0.000581501
3.22849e-05
1.2846e-06
3.85577e-08
9.07199e-10
1.70928e-11
2.59809e-13
3.17993e-15
3.09931e-17
2.36524e-19
1.42711e-21
3.53057e-24
7.74087e-28
3.91074e-30
2.45751e-32
4.41862e-36
8.2872e-39
2.88862e-38
1.16507e-40
2.53185e-43
-1.87636e-44
4.5557e-39
1.97125e-40
6.64087e-42
2.10098e-43
0.632144
0.266088
0.0824771
0.0202171
0.00697424
0.000573998
3.16547e-05
1.25852e-06
3.82207e-08
9.22553e-10
1.7899e-11
2.76275e-13
3.31287e-15
2.96338e-17
1.8561e-19
1.45884e-21
9.08928e-26
5.61789e-35
7.90576e-40
6.96486e-41
1.28522e-43
1.63103e-34
1.90134e-33
2.65328e-35
8.25636e-39
-2.86307e-40
2.61526e-34
3.68852e-36
4.6163e-38
5.80076e-40
0.631966
0.265882
0.0823021
0.0200984
0.00688665
0.000555591
2.98839e-05
1.16313e-06
3.52586e-08
8.76107e-10
1.79162e-11
2.97634e-13
3.95156e-15
4.07648e-17
3.01177e-19
1.29447e-21
2.28294e-25
3.18316e-35
1.5812e-30
4.41624e-29
2.10603e-30
1.4767e-32
6.32892e-34
2.56026e-30
2.33573e-32
1.20346e-34
4.09181e-37
0.631782
0.265599
0.0820148
0.0198948
0.00673327
0.000521974
2.64933e-05
9.72189e-07
2.92473e-08
8.00255e-10
1.93355e-11
3.67385e-13
5.15451e-15
5.68674e-17
5.59737e-19
3.86891e-21
1.21996e-24
1.19049e-31
1.74848e-26
1.07815e-24
5.37956e-26
4.6178e-28
1.66939e-30
1.09756e-27
1.74791e-29
1.97031e-31
1.57862e-33
0.63162
0.265268
0.0816423
0.0196197
0.00651808
0.000473259
2.15402e-05
1.19053e-06
6.54321e-09
2.13374e-11
1.05528e-14
1.8458e-16
4.49477e-13
2.31961e-10
1.01513e-12
7.96184e-15
3.00048e-19
-6.74202e-29
6.86221e-22
3.66611e-20
9.79352e-22
7.30099e-24
2.58555e-26
3.26054e-25
7.12453e-27
1.03229e-28
1.14067e-30
0.631502
0.264965
0.0812772
0.0193419
0.00629151
0.000421216
1.63818e-05
6.69808e-07
1.76219e-07
1.83731e-05
5.32315e-08
-2.98635e-09
2.4714e-11
2.49675e-13
1.06847e-13
9.77706e-13
-2.49368e-18
2.8279e-14
1.3786e-15
1.63915e-17
9.62181e-20
3.1615e-22
1.0392e-22
2.27146e-24
3.48623e-26
4.25076e-28
0.631437
0.264773
0.0810447
0.0191642
0.00613838
0.000385984
1.3218e-05
3.85958e-07
0.00421958
0.146288
0.834818
12.8254
0.0694409
0.00207766
6.33418e-05
9.65543e-06
2.9112e-07
3.95816e-09
3.66909e-11
2.33111e-13
1.00552e-15
2.82454e-18
6.35841e-20
1.04069e-21
1.51687e-23
2.02631e-25
0.63144
0.264776
0.0810445
0.0191635
0.00612217
0.000379849
1.26612e-05
3.42859e-07
66.9926
21413.2
349531
3.52813e+06
387.822
18.0257
1.05177
0.0429526
0.00108251
1.73519e-05
1.82455e-07
1.24542e-09
5.38174e-12
1.48111e-14
3.40014e-18
5.50383e-20
7.90554e-22
1.03742e-23
0.631501
0.264961
0.081273
0.0193393
0.00624795
0.000403867
1.45994e-05
4.67138e-07
0.267473
0.758438
0.0641559
1.21025
0.0466445
0.000171008
1.03249e-06
1.19088e-05
1.33526e-07
5.14399e-10
1.68034e-11
2.51881e-13
1.72944e-15
6.06362e-18
1.39616e-20
3.38149e-22
5.79982e-24
8.21262e-26
0.631618
0.265268
0.0816377
0.0196163
0.0064636
0.00045062
1.89941e-05
8.92462e-07
6.94842e-10
2.70035e-19
2.18734e-20
1.68154e-14
2.05089e-05
6.39607e-05
1.64802e-07
1.55347e-09
3.47706e-11
1.05956e-13
2.26688e-13
6.64669e-13
-3.78293e-19
3.0604e-18
5.3321e-16
2.82518e-17
2.99489e-19
1.20818e-21
7.56347e-23
2.01072e-24
3.56155e-26
4.98571e-28
0.631777
0.265594
0.0820084
0.0198906
0.00668558
0.000502245
2.4271e-05
8.49988e-07
2.37241e-08
6.21553e-10
1.1984e-11
1.12507e-13
4.78048e-13
1.7098e-11
3.29575e-13
2.72671e-15
1.79076e-18
4.53652e-30
3.0625e-24
1.08625e-20
2.61299e-21
4.11395e-23
1.77401e-25
4.48442e-25
1.0817e-26
1.80901e-28
2.30246e-30
0.631963
0.265877
0.0822952
0.0200942
0.00685299
0.000542068
2.84048e-05
1.07683e-06
3.24476e-08
8.36259e-10
1.85282e-11
3.44037e-13
5.17869e-15
6.15301e-17
5.42107e-19
2.96608e-21
1.5202e-24
7.53907e-34
9.6913e-29
1.83613e-25
1.81932e-25
4.54817e-27
2.30768e-29
2.35011e-27
5.00138e-29
6.8082e-31
7.11649e-33
0.632156
0.266084
0.0824693
0.0202131
0.00695293
0.000565937
3.08476e-05
1.21506e-06
3.68411e-08
8.96695e-10
1.76121e-11
2.74388e-13
3.3157e-15
3.00123e-17
1.89505e-19
1.37139e-21
4.70749e-26
4.75082e-38
1.8648e-33
2.16766e-30
8.17881e-30
3.38302e-31
9.78637e-33
8.5631e-30
1.60979e-31
1.79479e-33
1.49095e-35
0.632292
0.266219
0.0825598
0.0202653
0.00699959
0.000577168
3.19083e-05
1.2684e-06
3.82398e-08
9.08911e-10
1.73267e-11
2.64743e-13
3.19608e-15
2.95792e-17
2.00182e-19
1.75571e-21
4.21782e-25
2.92504e-31
3.23312e-37
2.26578e-37
-8.57688e-44
3.3194e-41
1.11641e-37
8.79232e-35
1.31348e-35
2.19927e-35
1.837e-32
3.96349e-34
4.97065e-36
5.00846e-38
0.6324
0.266268
0.0825751
0.0202733
0.00701132
0.000580291
3.21349e-05
1.27182e-06
3.77849e-08
8.74942e-10
1.61738e-11
2.4149e-13
2.92786e-15
2.88539e-17
2.32144e-19
1.56078e-21
9.47946e-24
5.94689e-26
3.864e-28
2.19553e-30
1.01213e-32
3.68551e-35
1.01177e-37
2.21344e-40
8.61566e-41
4.73748e-40
3.10066e-36
1.94845e-37
7.57682e-39
2.38999e-40
0.632523
0.266298
0.0825483
0.020253
0.00700327
0.000578853
3.1923e-05
1.25199e-06
3.66154e-08
8.29365e-10
1.49438e-11
2.18132e-13
2.61473e-15
2.60633e-17
2.20262e-19
1.63164e-21
1.10892e-23
7.09614e-26
4.1682e-28
2.16088e-30
9.75442e-33
3.84647e-35
1.33395e-37
4.11331e-40
1.14593e-42
1.28952e-45
3.54072e-39
4.60671e-40
1.37411e-40
3.13583e-41
0.63262
0.266316
0.0825056
0.0202173
0.00698166
0.000575102
3.15063e-05
1.22358e-06
3.5301e-08
7.85978e-10
1.39002e-11
1.99618e-13
2.36925e-15
2.36488e-17
2.02485e-19
1.52607e-21
1.04251e-23
6.5931e-26
3.84395e-28
2.02706e-30
9.52532e-33
3.97399e-35
1.58408e-37
1.09742e-39
2.68132e-41
1.46773e-42
-5.28356e-38
6.02066e-37
2.25921e-37
3.67481e-38
0.632736
0.266338
0.0824467
0.0201617
0.00694536
0.000568252
3.08549e-05
1.1857e-06
3.37778e-08
7.41553e-10
1.29329e-11
1.83467e-13
2.16396e-15
2.18633e-17
2.09803e-19
2.9993e-21
1.06312e-22
5.69205e-24
3.1628e-25
1.70307e-26
8.80246e-28
4.36447e-29
2.07538e-30
9.48873e-32
4.16895e-33
1.75451e-34
-2.54566e-33
4.59688e-33
6.45317e-34
5.55036e-35
0.632827
0.266402
0.0824033
0.0200913
0.00404759
0.000692912
0.000103333
1.36802e-05
1.6314e-06
1.77267e-07
1.7712e-08
1.64005e-09
1.4167e-10
1.14871e-11
8.7958e-13
6.39624e-14
4.43924e-15
2.95054e-16
1.88071e-17
1.14936e-18
6.73112e-20
3.77493e-21
2.02766e-22
1.04341e-23
5.14778e-25
2.43548e-26
1.10557e-27
4.81589e-29
2.01553e-30
8.09176e-32
0.632922
0.266419
0.0823468
0.0200365
0.00402081
0.000687426
0.000102504
1.35715e-05
1.61834e-06
1.75812e-07
1.7565e-08
1.62685e-09
1.40626e-10
1.14159e-11
8.75079e-13
6.36553e-14
4.41211e-15
2.92191e-16
1.85169e-17
1.1237e-18
6.53027e-20
3.63365e-21
1.93673e-22
9.88961e-24
4.84017e-25
2.27179e-26
1.02296e-27
4.42056e-29
1.83562e-30
7.31247e-32
0.632968
0.266414
0.0823064
0.0200061
0.00400791
0.000683652
0.000101674
1.34226e-05
1.59543e-06
1.72711e-07
1.7192e-08
1.58578e-09
1.36521e-10
1.10329e-11
8.41598e-13
6.08608e-14
4.18822e-15
2.75051e-16
1.72688e-17
1.03751e-18
5.96726e-20
3.28685e-21
1.73411e-22
8.76692e-24
4.24948e-25
1.97525e-26
8.8104e-28
3.77136e-29
1.55153e-30
6.12767e-32
0.632989
0.26641
0.0822887
0.0199929
0.0040022
0.000681959
0.0001013
1.33562e-05
1.58542e-06
1.71393e-07
1.70351e-08
1.56925e-09
1.34872e-10
1.08813e-11
8.28188e-13
5.97371e-14
4.09796e-15
2.68091e-16
1.67581e-17
1.00197e-18
5.73518e-20
3.14334e-21
1.65055e-22
8.30604e-24
4.00713e-25
1.85478e-26
8.23727e-28
3.51184e-29
1.43928e-30
5.66441e-32
0.631793
0.264513
0.0808526
0.0193338
0.00379097
0.000630284
9.10909e-05
1.16632e-05
1.34302e-06
1.40777e-07
1.35678e-08
1.21249e-09
1.01195e-10
7.93671e-12
5.88118e-13
4.13615e-14
2.77104e-15
1.77341e-16
1.08624e-17
6.3749e-19
3.58743e-20
1.93613e-21
1.00233e-22
4.97816e-24
2.37245e-25
1.08525e-26
4.76597e-28
2.01063e-29
8.1597e-31
3.18438e-32
0.631799
0.264521
0.0808599
0.0193384
0.00379293
0.00063088
9.12309e-05
1.16898e-05
1.34723e-06
1.41356e-07
1.36385e-08
1.22028e-09
1.01985e-10
8.01177e-12
5.94872e-13
4.1943e-14
2.81901e-15
1.81114e-16
1.11435e-17
6.57254e-19
3.71785e-20
2.01725e-21
1.04999e-22
5.24209e-24
2.51066e-25
1.15388e-26
5.08992e-28
2.15596e-29
8.78188e-31
3.43887e-32
0.631806
0.264537
0.0808746
0.0193478
0.00379689
0.000632104
9.15194e-05
1.17444e-05
1.35596e-06
1.42568e-07
1.3788e-08
1.23692e-09
1.03687e-10
8.17411e-12
6.09558e-13
4.32129e-14
2.92421e-15
1.89432e-16
1.17665e-17
7.01223e-19
4.00955e-20
2.19953e-21
1.15758e-22
5.84185e-24
2.82718e-25
1.3121e-26
5.84229e-28
2.49651e-29
1.02533e-30
4.04624e-32
0.631824
0.264562
0.0808963
0.0193607
0.00380402
0.00063234
9.13562e-05
1.17032e-05
1.34983e-06
1.41872e-07
1.37225e-08
1.23151e-09
1.03291e-10
8.15005e-12
6.08747e-13
4.32874e-14
2.94461e-15
1.92236e-16
1.20607e-17
7.27121e-19
4.21004e-20
2.33955e-21
1.24736e-22
6.37522e-24
3.12161e-25
1.46401e-26
6.57923e-28
2.83444e-29
1.17227e-30
4.65555e-32
0.631855
0.264602
0.0809251
0.0193845
0.00652958
0.000512843
2.64168e-05
9.59661e-07
2.61526e-08
5.78983e-10
1.27634e-11
4.35533e-13
2.54062e-14
1.7536e-15
1.20236e-16
7.94409e-18
5.05067e-19
3.0946e-20
1.82687e-21
1.03783e-22
5.67051e-24
2.97854e-25
1.50495e-26
2.95602e-27
7.32584e-28
6.30346e-29
1.26058e-30
8.24739e-32
4.52434e-33
2.18889e-34
0.631874
0.264623
0.0809409
0.0193954
0.0065409
0.000515602
2.66965e-05
9.74696e-07
2.64862e-08
5.58332e-10
9.42621e-12
1.30679e-13
1.51887e-15
1.50847e-17
1.30533e-19
1.00502e-21
7.03143e-24
4.56653e-26
2.94086e-28
2.79408e-30
7.25264e-32
3.09227e-33
1.38307e-34
7.10095e-34
2.09101e-33
4.95791e-34
1.74846e-33
1.89252e-34
1.36924e-35
7.9199e-37
0.631891
0.264631
0.0809432
0.0193988
0.00654711
0.000517766
2.69727e-05
9.94292e-07
2.73891e-08
5.87573e-10
1.01216e-11
1.43244e-13
1.69635e-15
1.71057e-17
1.49894e-19
1.17194e-21
8.4371e-24
5.72483e-26
3.63611e-28
2.11178e-30
1.11102e-32
5.30399e-35
2.3001e-37
1.3922e-39
8.92358e-39
4.74758e-39
3.37497e-36
4.96135e-37
4.39527e-38
2.92028e-39
0.631905
0.264622
0.0809209
0.0193874
0.00654458
0.000518681
2.71758e-05
1.01276e-06
2.83954e-08
6.24267e-10
1.10745e-11
1.61577e-13
1.96526e-15
2.01809e-17
1.7806e-19
1.39472e-21
1.02522e-23
7.44928e-26
5.28654e-28
3.47302e-30
2.06244e-32
1.10559e-34
5.34152e-37
2.30934e-39
8.98436e-42
1.56788e-43
1.01853e-38
1.80215e-39
1.82926e-40
1.32064e-41
0.631918
0.264582
0.0808587
0.0193506
0.00652721
0.000517265
2.72118e-05
1.02602e-06
2.94279e-08
6.69931e-10
1.2416e-11
1.89724e-13
2.40398e-15
2.52994e-17
2.21647e-19
1.64645e-21
5.80871e-24
1.43695e-27
7.61559e-30
4.51034e-32
8.01053e-36
3.62089e-39
3.29961e-41
1.40904e-42
1.24061e-44
2.41964e-47
4.51566e-41
7.57189e-42
8.01454e-43
5.91741e-44
0.631934
0.264497
0.0807363
0.0192736
0.0064851
0.000511534
2.68941e-05
1.02386e-06
3.01836e-08
7.21477e-10
1.42611e-11
2.33455e-13
3.14875e-15
3.44888e-17
2.94157e-19
3.32252e-21
4.04681e-25
3.05469e-34
3.47271e-40
2.86144e-40
1.78904e-46
3.12071e-37
9.4863e-37
2.81936e-39
3.89003e-43
-1.46057e-42
4.80226e-37
1.00028e-38
1.78086e-40
3.042e-42
0.631955
0.264353
0.0805284
0.0191387
0.00640508
0.000498624
2.59054e-05
9.85755e-07
2.98603e-08
7.61279e-10
1.64986e-11
3.0191e-13
4.60388e-15
5.6847e-17
5.1935e-19
2.64135e-21
4.50798e-25
7.33886e-38
6.90302e-33
4.80142e-32
4.68994e-34
9.50046e-37
9.53021e-37
1.24007e-33
9.70411e-36
7.91976e-38
5.52332e-40
0.631982
0.264148
0.0802266
0.0189351
0.00627656
0.000475375
2.38144e-05
8.75128e-07
2.62158e-08
7.14442e-10
1.74043e-11
3.18389e-13
3.94181e-15
3.46033e-17
2.47078e-19
1.25247e-21
3.24971e-25
1.78339e-33
4.22348e-28
3.81103e-27
5.08456e-29
1.57615e-31
2.5634e-34
7.40722e-32
9.13692e-34
6.48433e-36
6.24568e-38
0.632032
0.263904
0.0798616
0.0186786
0.00610392
0.000440898
2.0286e-05
1.13505e-06
5.93079e-09
1.67117e-11
4.77538e-15
5.56536e-17
2.65281e-15
1.21005e-12
3.97482e-15
3.15881e-17
5.47207e-22
-7.99811e-31
1.7996e-21
2.37131e-22
2.14145e-24
7.39926e-27
1.4183e-29
4.43705e-29
9.59508e-31
1.36525e-32
1.63901e-34
0.632076
0.263681
0.0795168
0.0184299
0.00592644
0.00040278
1.6093e-05
6.28235e-07
5.68294e-10
3.7895e-07
3.32384e-10
-1.11007e-10
3.87754e-14
9.09186e-16
1.16804e-14
4.78871e-15
-4.82184e-20
4.20501e-16
5.40494e-18
3.25181e-20
1.08417e-22
2.21199e-25
2.3385e-26
4.83547e-28
7.5925e-30
1.16977e-31
0.632104
0.263544
0.0793039
0.0182752
0.00580889
0.000376638
1.3447e-05
3.80187e-07
1.6336e-05
0.00921689
0.00865169
0.0990015
0.000211197
6.84283e-06
2.38816e-07
4.53947e-08
1.08506e-09
1.0599e-11
6.56453e-14
2.76455e-16
7.84182e-19
1.50757e-21
2.88695e-23
5.12697e-25
8.41665e-27
1.30229e-28
0.632106
0.263544
0.0793019
0.0182743
0.0057967
0.000371821
1.29636e-05
3.43764e-07
0.276293
259.518
5469.46
39821
3.03469
0.117497
0.0062191
0.000213898
4.16781e-06
4.75914e-08
3.34916e-10
1.48237e-12
4.43749e-15
9.22401e-18
1.9236e-21
3.40554e-23
5.5514e-25
8.49768e-27
0.632076
0.263678
0.0795116
0.018427
0.00589364
0.0003893
1.45348e-05
4.45568e-07
0.00105926
0.0327617
0.000611514
0.00923273
7.12364e-05
6.17684e-07
1.71607e-08
5.04836e-08
8.52266e-10
4.04431e-12
5.37789e-14
4.2738e-16
1.89353e-18
5.01651e-21
6.77344e-24
1.90921e-25
4.00647e-27
7.13474e-29
0.632028
0.263898
0.0798543
0.0186741
0.00606276
0.000423772
1.81828e-05
8.26944e-07
5.35165e-10
1.03702e-18
5.80685e-23
5.06243e-18
6.65335e-08
1.92744e-07
1.88119e-10
-2.09808e-11
4.74567e-14
2.52423e-16
2.14015e-16
1.57597e-16
-4.48302e-22
1.97589e-17
3.8515e-18
6.83659e-20
4.25471e-22
1.29264e-24
2.9953e-26
1.02907e-27
2.42405e-29
4.58586e-31
0.631986
0.264141
0.0802187
0.01893
0.00624018
0.000460972
2.22267e-05
7.77624e-07
2.0584e-08
5.13825e-10
8.45519e-12
4.9766e-14
5.50425e-15
8.25891e-14
1.23159e-15
7.18894e-18
2.7426e-21
-7.47476e-30
4.67824e-25
1.08488e-22
6.20873e-24
5.33584e-26
1.73193e-28
1.36973e-28
4.69702e-30
1.09693e-31
1.91248e-33
0.631956
0.264349
0.0805202
0.0191336
0.00637872
0.000488764
2.49508e-05
9.36684e-07
2.84708e-08
7.51835e-10
1.75796e-11
3.54413e-13
5.90653e-15
7.96405e-17
8.04487e-19
4.60227e-21
9.6549e-25
3.1948e-36
3.30752e-31
8.67152e-28
2.41144e-28
3.25828e-30
1.10697e-32
4.38035e-31
1.33791e-32
2.76148e-34
3.52741e-36
0.63195
0.264504
0.0807297
0.019269
0.00646759
0.000505414
2.63799e-05
1.0034e-06
2.99279e-08
7.3591e-10
1.51265e-11
2.58094e-13
3.62019e-15
4.08555e-17
3.45922e-19
3.33324e-21
1.04336e-25
1.59546e-40
1.82234e-36
2.54479e-33
3.83941e-33
8.2218e-35
2.02351e-36
9.71089e-34
1.5618e-35
1.86895e-37
1.80141e-39
0.631904
0.264579
0.0808541
0.0193458
0.00651632
0.000513554
2.69495e-05
1.0188e-06
2.9542e-08
6.85936e-10
1.30521e-11
2.05031e-13
2.65822e-15
2.82492e-17
2.41765e-19
2.98372e-21
1.30019e-24
1.2282e-30
6.51059e-37
1.94763e-37
-1.3115e-44
4.91199e-42
1.58612e-40
2.09652e-38
1.88987e-39
4.20974e-39
4.43021e-35
1.29999e-36
2.50171e-38
4.3101e-40
0.631908
0.264601
0.0809129
0.0193837
0.00653689
0.000516466
2.70415e-05
1.01089e-06
2.85743e-08
6.3651e-10
1.14785e-11
1.70277e-13
2.09737e-15
2.16193e-17
1.88637e-19
1.43784e-21
1.01341e-23
7.29609e-26
5.47597e-28
3.50061e-30
1.70588e-32
6.19848e-35
1.69976e-37
3.56158e-40
5.9692e-43
3.45949e-44
6.54375e-39
5.83448e-40
3.43794e-41
1.8116e-42
0.631893
0.264628
0.0809339
0.0193934
0.00654151
0.000516347
2.68989e-05
9.94044e-07
2.75335e-08
5.95479e-10
1.03552e-11
1.47924e-13
1.76357e-15
1.78159e-17
1.55519e-19
1.20846e-21
8.72988e-24
6.07749e-26
4.02348e-28
2.44908e-30
1.34912e-32
6.70286e-35
2.99966e-37
1.21014e-39
4.42294e-42
9.86613e-45
5.50207e-38
1.5722e-38
2.24556e-39
2.25104e-40
0.631876
0.264621
0.0809354
0.0193914
0.00653725
0.000514668
2.66591e-05
9.75032e-07
2.65844e-08
5.63097e-10
9.5595e-12
1.3317e-13
1.55311e-15
1.54398e-17
1.33533e-19
1.02848e-21
7.23615e-24
4.73675e-26
2.87916e-28
1.60244e-30
8.09205e-33
3.71546e-35
1.63962e-37
1.05207e-39
2.11248e-41
-1.15931e-41
6.92327e-35
1.32238e-35
1.37956e-36
1.10079e-37
0.631857
0.2646
0.0809193
0.0193804
0.00652749
0.000512217
2.63667e-05
9.55845e-07
2.57519e-08
5.37448e-10
8.97058e-12
1.22888e-13
1.41411e-15
1.41232e-17
1.37107e-19
2.06321e-21
7.53187e-23
4.00025e-24
2.19476e-25
1.1676e-26
5.97733e-28
2.94013e-29
1.39283e-30
6.35557e-32
2.79211e-33
1.17978e-34
1.65659e-31
1.72141e-32
1.21538e-33
7.21684e-35
0.631826
0.264558
0.0808904
0.0193567
0.00380226
0.000631819
9.12317e-05
1.16786e-05
1.34558e-06
1.41229e-07
1.36356e-08
1.22103e-09
1.02152e-10
8.03642e-12
5.98315e-13
4.23907e-14
2.87273e-15
1.86809e-16
1.16747e-17
7.00974e-19
4.04264e-20
2.23785e-21
1.18953e-22
6.07197e-24
2.97866e-25
1.40491e-26
6.37282e-28
2.78052e-29
1.16801e-30
4.72126e-32
0.631808
0.264534
0.0808686
0.0193436
0.00379509
0.000631543
9.13821e-05
1.17171e-05
1.35132e-06
1.41878e-07
1.36972e-08
1.2263e-09
1.02539e-10
8.06125e-12
5.99258e-13
4.23415e-14
2.85521e-15
1.84299e-16
1.14062e-17
6.77401e-19
3.86108e-20
2.11244e-21
1.10983e-22
5.6006e-24
2.7162e-25
1.26679e-26
5.68434e-28
2.45456e-29
1.02118e-30
4.09021e-32
0.6318
0.264518
0.0808544
0.0193344
0.00379119
0.00063033
9.10945e-05
1.16625e-05
1.34261e-06
1.40674e-07
1.35506e-08
1.20981e-09
1.00876e-10
7.90346e-12
5.85095e-13
4.11247e-14
2.75474e-15