/*--------------------------------*- C++ -*----------------------------------*\
  =========                 |
  \\      /  F ield         | OpenFOAM: The Open Source CFD Toolbox
   \\    /   O peration     | Website:  https://openfoam.org
    \\  /    A nd           | Version:  11
     \\/     M anipulation  |
\*---------------------------------------------------------------------------*/
FoamFile
{
    format      ascii;
    class       volScalarField;
    location    "5";
    object      p;
}
// * * * * * * * * * * * * * * * * * * * * * * * * * * * * * * * * * * * * * //

dimensions      [0 2 -2 0 0 0 0];

internalField   nonuniform List<scalar> 
96305
(
0.00125151
0.00118145
0.00113441
0.00109623
0.00104436
0.000981237
0.000915525
0.000847405
0.000773036
0.000691309
0.000602829
0.000507306
0.00040352
0.000290514
0.000168633
4.0579e-05
-8.77896e-05
-0.000207792
-0.000310038
-0.000387529
-0.000437401
-0.000460135
-0.000457718
-0.000432608
-0.000387869
-0.000328072
-0.000257264
-0.000182512
-0.000100918
-4.37178e-05
0.00127063
0.00120051
0.00115233
0.0011119
0.00105519
0.000988201
0.00092302
0.000856503
0.000782693
0.000701289
0.000613256
0.000517933
0.000413529
0.000298276
0.000171662
3.60748e-05
-0.000101749
-0.000230979
-0.000339919
-0.000420747
-0.000471385
-0.000493338
-0.000489024
-0.000460829
-0.000411924
-0.000346961
-0.000269793
-0.000188365
-0.000101885
-4.30954e-05
0.00130971
0.00123877
0.00118918
0.00114387
0.00107738
0.0010055
0.000944028
0.000878481
0.000802402
0.000719655
0.000631886
0.000537302
0.000432481
0.000313467
0.000177508
2.60878e-05
-0.000131972
-0.000280411
-0.000401801
-0.000486862
-0.000536244
-0.00055433
-0.000544624
-0.000509906
-0.000453664
-0.000380583
-0.00029488
-0.000205129
-0.000111642
-4.9061e-05
0.00137179
0.00130142
0.00125278
0.00118592
0.00107901
0.0010078
0.000970591
0.000913656
0.000838111
0.000754819
0.000668009
0.000575708
0.000472052
0.000348433
0.000196715
1.56273e-05
-0.00018195
-0.000367977
-0.000513325
-0.000606956
-0.000655672
-0.000669589
-0.0006522
-0.000604555
-0.000532302
-0.000433423
-0.000313701
-0.000201216
-0.00010222
-4.58745e-05
0.0014579
0.00139542
0.00138499
0.00132422
0.0013221
0.000885731
0.000985756
0.00094582
0.00088318
0.000804154
0.000720797
0.000634951
0.000540512
0.000424255
0.000269228
6.43061e-05
-0.000179836
-0.000419933
-0.000604207
-0.000716035
-0.000768799
-0.000778346
-0.00075649
-0.000710203
-0.000639926
-0.000564832
-0.000398397
-0.000232348
-0.000116977
-5.58901e-05
0.00156024
0.00149858
0.00148891
0.00141011
0.00136521
0.000900393
0.00104876
0.000996284
0.000928848
0.000845027
0.000765352
0.000693908
0.000621289
0.000522387
0.000358549
9.25668e-05
-0.000269732
-0.000627772
-0.000859986
-0.000963983
-0.000994004
-0.000989456
-0.000958239
-0.000894637
-0.000798899
-0.000679296
-0.000410629
-0.000215333
-9.8608e-05
-4.91002e-05
0.00168093
0.00161934
0.00161101
0.00152913
0.00146505
0.000979434
0.00112368
0.00105652
0.000970247
0.000873686
0.000798774
0.00075485
0.000729501
0.000681758
0.000534278
0.000180727
-0.000408622
-0.000952804
-0.00117672
-0.00120173
-0.00116649
-0.00113958
-0.00111291
-0.00105997
-0.000965346
-0.00084118
-0.000530893
-0.000280537
-0.000132852
-6.01005e-05
0.00182382
0.00176386
0.00176019
0.00168092
0.00159917
0.00110832
0.00123005
0.00112796
0.00100012
0.000873983
0.000801643
0.00080256
0.000865534
0.000937242
0.000887891
0.000465583
-0.000616073
-0.00166132
-0.0017691
-0.00155919
-0.00135907
-0.00132747
-0.00132407
-0.0012261
-0.00104127
-0.00084951
-0.000453383
-0.000233156
-9.38969e-05
-4.9421e-05
0.00199098
0.00193532
0.00194312
0.00187725
0.00178524
0.00129582
0.00138004
0.00121284
0.001001
0.000810363
0.000731755
0.000796774
0.000996066
0.00126217
0.00139086
0.000769036
-0.00122674
-0.00216
-0.00212651
-0.00162169
-0.00122948
-0.00144839
-0.0016858
-0.00162201
-0.00129741
-0.000888919
-0.000468658
-0.00023836
-9.49861e-05
-3.10763e-05
0.00218162
0.00213448
0.00216455
0.00212861
0.00203839
0.00156617
0.00159633
0.00131505
0.000935313
0.000629325
0.00055244
0.000696286
0.000997676
0.00135095
0.00166732
0.00129795
-0.00013341
-0.00478621
-0.00296344
-0.00185121
-0.00103429
-0.00148741
-0.00182502
-0.00177802
-0.00136941
-0.000891053
-0.000442476
-0.00022078
-8.7868e-05
-7.2294e-06
0.00239024
0.00235744
0.00242466
0.00244304
0.00237908
0.00195619
0.00191858
0.00144998
0.00077769
0.000258275
0.000136288
0.000340218
0.000761929
0.00140453
0.00249563
0.0027087
0.00605556
-0.00119541
-0.00143509
-0.00165167
-0.00156584
-0.00122232
-0.000836743
-0.000412159
-0.000223736
-9.98935e-05
-1.12944e-05
0.00260436
0.0025925
0.00271386
0.00281712
0.00282156
0.00250288
0.00239611
0.00163847
-0.000108041
-0.000885934
-0.000694289
-0.000340263
6.36181e-05
0.000591766
0.00219128
0.00310109
0.00632708
-0.00132502
-0.00153235
-0.00158493
-0.001415
-0.0011136
-0.000778666
-0.000391918
-0.000207959
-9.09999e-05
1.10367e-06
0.00280315
0.00281691
0.0030046
0.00321858
0.0033493
0.0032152
0.00308273
0.00184921
-0.00038313
-0.00130604
-0.00156181
-0.00102847
-0.000176325
-0.000706292
-0.000110327
0.00103151
0.00349696
-0.00159626
-0.00169784
-0.00160268
-0.00135263
-0.00103635
-0.000713979
-0.000370437
-0.000179127
-6.74654e-05
1.60646e-05
0.0029594
0.00299747
0.00324786
0.00357059
0.00386852
0.00396589
0.00390722
0.002447
-0.000660255
-0.00153289
-0.00130401
-0.000566966
-0.000231737
-0.00312654
-0.00333558
-0.0025569
-0.00181031
-0.00177534
-0.0016057
-0.00132949
-0.00101034
-0.00069626
-0.000367878
-0.000177992
-6.60042e-05
4.62897e-06
0.00304668
0.00309962
0.0033879
0.00377698
0.0042218
0.00446954
0.00436574
0.00446311
-0.000377009
-0.00140657
-0.00102479
0.0010023
0.00151113
-0.00183263
-0.00271422
-0.0021467
-0.00176833
-0.00173891
-0.00154904
-0.00128318
-0.000975984
-0.000673645
-0.000384899
-0.000199365
-7.6877e-05
-1.30092e-05
0.003049
0.003102
0.00339041
0.00377971
0.00430269
0.00457524
0.00445105
0.00499994
0.000840872
-0.000839533
-0.00045052
0.00197852
0.00270851
-0.000538881
-0.00217241
-0.00208196
-0.00180908
-0.00173843
-0.00156946
-0.00130345
-0.000991695
-0.000686601
-0.000428552
-0.00022313
-8.68174e-05
-1.36009e-05
0.00296631
0.00300456
0.00325536
0.00357879
0.00409501
0.00427085
0.0041958
0.00413334
-0.000493595
-0.00156325
-0.00131905
-6.09443e-05
0.000792381
-0.00254243
-0.00314384
-0.00225779
-0.0017327
-0.00182992
-0.00171602
-0.00144366
-0.00110415
-0.000782551
-0.000483912
-0.000245261
-9.24815e-05
2.25454e-06
0.00281446
0.00282851
0.00301687
0.00323199
0.00365312
0.00361738
0.00353451
0.00218078
-0.00433801
-0.00267882
-0.00177058
-0.00110281
-0.000482137
-0.00105768
-0.000852901
-0.000334544
-0.000365148
-0.00305517
-0.00323135
-0.00258059
-0.0018957
-0.00180536
-0.00172752
-0.00148217
-0.00115983
-0.000838903
-0.000515669
-0.000267234
-0.000101985
1.61281e-05
0.00261976
0.00260826
0.00273047
0.00283516
0.00311869
0.0028601
0.00271991
0.0016159
-0.000829853
-0.00137033
-0.00115508
-0.000650587
-0.000168079
-0.00011116
0.001079
0.00172198
0.00398726
-0.00155689
-0.00160317
-0.00159966
-0.00142081
-0.00115447
-0.00087293
-0.000543689
-0.000301735
-0.000124736
1.48199e-05
0.00240935
0.00237693
0.00244512
0.00246501
0.00262905
0.00223227
0.00216542
0.00157422
0.000543635
-0.000192422
-0.000273092
7.77843e-06
0.000482961
0.0012194
0.00271667
0.00325389
0.00648031
-0.00128221
-0.00136854
-0.00138747
-0.00128226
-0.00109707
-0.000885301
-0.000580788
-0.000357135
-0.000168156
-5.7627e-06
0.00220403
0.00215727
0.00218831
0.0021539
0.00223684
0.00177089
0.00177136
0.00141157
0.000914185
0.000546534
0.000464991
0.000630948
0.000984839
0.00144228
0.0020631
0.00234934
0.00573846
-0.00119629
-0.00123309
-0.00109415
-0.00102082
-0.000948533
-0.000844821
-0.00058575
-0.000397375
-0.00022224
-4.09195e-05
0.00201626
0.00196098
0.00196975
0.00190534
0.00194097
0.00144901
0.00151098
0.00129818
0.00102027
0.000780132
0.000699859
0.000805864
0.00107021
0.00139828
0.00158441
0.00123315
-4.48357e-05
-0.00456485
-0.00303411
-0.00199149
-0.00136284
-0.00116491
-0.000729589
-0.000669048
-0.000706249
-0.000791702
-0.000592002
-0.000411788
-0.000267255
-8.12971e-05
0.00185158
0.001792
0.00178928
0.00171148
0.00172305
0.00122659
0.00133405
0.00120751
0.00104887
0.000900935
0.000832351
0.000869477
0.00100372
0.00117848
0.00123355
0.000754187
-0.00101162
-0.00232079
-0.00213459
-0.00164247
-0.0012762
-0.00106628
-0.000789531
-0.000654911
-0.000650102
-0.00072056
-0.000533041
-0.000342026
-0.000196732
-8.05792e-05
0.00171083
0.0016496
0.0016422
0.00156173
0.00156419
0.00107271
0.00120996
0.00113179
0.00103264
0.000929012
0.000861606
0.000844293
0.000864707
0.00087449
0.0007721
0.000394834
-0.000331578
-0.00104213
-0.00129548
-0.00124966
-0.00112462
-0.00099368
-0.000847681
-0.000729356
-0.000657034
-0.000604312
-0.000391825
-0.000233802
-0.000136493
-7.5927e-05
0.00159195
0.00153063
0.00152187
0.00144451
0.00145002
0.000970812
0.00112248
0.00106885
0.000998284
0.00091411
0.000842402
0.000789468
0.000744385
0.000674585
0.00052437
0.000229215
-0.000222149
-0.000668724
-0.00091405
-0.000971308
-0.000924605
-0.000839531
-0.000745386
-0.000667183
-0.000618279
-0.000600417
-0.000325929
-0.000183055
-0.000113987
-6.19125e-05
0.00149109
0.00142895
0.00141943
0.00136009
0.00137784
0.000920153
0.00106559
0.00101983
0.000959277
0.000882225
0.000805673
0.000732204
0.00065416
0.000552903
0.000402256
0.000180252
-0.000103824
-0.000385685
-0.000585535
-0.000684823
-0.000708396
-0.000685226
-0.000637129
-0.000580935
-0.000527715
-0.000475728
-0.000293297
-0.000172174
-9.54834e-05
-5.23616e-05
0.00140615
0.00133613
0.0012884
0.001223
0.00111804
0.00104913
0.00101474
0.000961373
0.00089016
0.000811921
0.000730984
0.000645353
0.000549125
0.000433693
0.000290738
0.000118604
-7.02762e-05
-0.000247884
-0.00038445
-0.00046794
-0.000505505
-0.000510215
-0.00049318
-0.000460172
-0.000412716
-0.000339635
-0.000240613
-0.000158861
-8.74551e-05
-4.44468e-05
0.00134495
0.00127435
0.00122566
0.00118177
0.00111715
0.00104759
0.000988949
0.000926856
0.000854893
0.000776931
0.000694617
0.000606174
0.000508086
0.000396344
0.000268023
0.000124217
-2.64385e-05
-0.000167911
-0.000282899
-0.000361997
-0.000406451
-0.000422452
-0.000416191
-0.000391847
-0.000351612
-0.000297524
-0.000231916
-0.000164723
-9.19811e-05
-4.22511e-05
0.00130645
0.00123666
0.00118936
0.00115034
0.0010955
0.00103083
0.000968498
0.000905393
0.0008356
0.000758839
0.000676061
0.000586546
0.000488493
0.000379989
0.000260332
0.000131696
4.9623e-07
-0.000122666
-0.0002263
-0.000302851
-0.000350966
-0.000373337
-0.000373881
-0.000356101
-0.000322503
-0.000275525
-0.000216609
-0.000153105
-8.33305e-05
-3.66879e-05
0.00128763
0.00121789
0.00117173
0.00113496
0.00108494
0.00102413
0.000961243
0.000896498
0.000826078
0.000748899
0.000665543
0.000575674
0.000478026
0.000371488
0.000256241
0.000134771
1.26412e-05
-0.000101755
-0.000199359
-0.000273614
-0.000322228
-0.000346659
-0.00034985
-0.000334783
-0.000304046
-0.000260377
-0.000205968
-0.000147431
-8.15042e-05
-3.65426e-05
0.00125497
0.00120996
0.00115097
0.0010968
0.00104051
0.000978034
0.000911539
0.000841375
0.000765801
0.000684067
0.000596293
0.000502088
0.00040042
0.000290464
0.000172598
4.93988e-05
-7.36952e-05
-0.000188675
-0.000286896
-0.000361848
-0.000410851
-0.000434347
-0.000434215
-0.000412851
-0.000373224
-0.000318977
-0.000253217
-0.000182464
-0.000102352
-4.62468e-05
0.00127161
0.00122608
0.00116612
0.00111025
0.00105145
0.000987251
0.000920436
0.000850045
0.000774027
0.000692056
0.000604337
0.000510128
0.00040781
0.00029578
0.000173611
4.35736e-05
-8.80949e-05
-0.000211426
-0.000315649
-0.000393454
-0.000442868
-0.000465318
-0.000463118
-0.000438763
-0.000395256
-0.000336311
-0.000265557
-0.00018981
-0.000105194
-4.65489e-05
0.0013055
0.00125885
0.00119715
0.00113784
0.00107446
0.00100776
0.000940799
0.000869224
0.000791387
0.000708479
0.000621001
0.000527361
0.000424482
0.000308772
0.000177782
3.29807e-05
-0.000117506
-0.000258783
-0.00037482
-0.000456917
-0.000505587
-0.000524936
-0.000518153
-0.00048761
-0.000436518
-0.000368984
-0.000290414
-0.000207565
-0.000115706
-5.20384e-05
0.00135786
0.00130954
0.00124501
0.00117625
0.00110523
0.00103659
0.000969019
0.000897316
0.000817683
0.000733686
0.000647014
0.000555527
0.000453704
0.00033368
0.00018816
1.62096e-05
-0.000170137
-0.000345144
-0.000482037
-0.00057052
-0.000616794
-0.000630185
-0.00061524
-0.00057335
-0.00050756
-0.000422829
-0.000327688
-0.000224452
-0.000119358
-5.10661e-05
0.00142957
0.00138034
0.00131687
0.00122955
0.00112378
0.00110095
0.00100171
0.000940243
0.000865583
0.000785437
0.000703141
0.000618624
0.000525657
0.00041188
0.000261814
6.56901e-05
-0.000165889
-0.000392918
-0.000567774
-0.000675073
-0.000728574
-0.000744551
-0.000729819
-0.000686223
-0.00061351
-0.000514248
-0.000415098
-0.000271478
-0.000139454
-6.07519e-05
0.00151914
0.00146862
0.00140315
0.00130752
0.00117421
0.00115739
0.0010465
0.000984259
0.000903127
0.000819627
0.000741052
0.000669506
0.000595412
0.000495623
0.000335207
8.18676e-05
-0.00025572
-0.000586553
-0.000801801
-0.000898067
-0.000927436
-0.000927766
-0.00090345
-0.000844348
-0.000747698
-0.00061582
-0.000487542
-0.000293842
-0.000137372
-6.03615e-05
0.00162791
0.00157707
0.00151241
0.00141635
0.0012728
0.00124237
0.00111879
0.00104008
0.000941261
0.000846484
0.000771867
0.000724205
0.000691006
0.00063394
0.000481605
0.00014121
-0.000409458
-0.000938385
-0.00117067
-0.00118818
-0.00114927
-0.00112835
-0.00110187
-0.00103415
-0.00091327
-0.000753483
-0.000570412
-0.000325998
-0.000143269
-6.64124e-05
0.00175759
0.00170795
0.00164754
0.00155636
0.00140417
0.00136248
0.00121928
0.00110807
0.000971443
0.000849515
0.000776016
0.000766924
0.000809561
0.000850275
0.000759317
0.000291561
-0.000744765
-0.00171116
-0.00183585
-0.00160254
-0.00139309
-0.0013648
-0.00137177
-0.00128146
-0.00107898
-0.00082644
-0.000566087
-0.000300897
-0.000116594
-5.5977e-05
0.00190886
0.00186267
0.00181235
0.0017351
0.0015811
0.00152927
0.00135695
0.00118782
0.000975906
0.000794695
0.000713007
0.000757928
0.000918119
0.0011358
0.00122209
0.000652349
-0.00131026
-0.00349524
-0.00300034
-0.00208156
-0.001384
-0.00157094
-0.0017477
-0.00169347
-0.00138174
-0.000968739
-0.000585814
-0.000297435
-0.000120038
-2.95477e-05
0.0020801
0.00204075
0.00200942
0.00195983
0.00181589
0.00176232
0.00155074
0.00127989
0.000916469
0.000612412
0.000508025
0.000612891
0.000898509
0.0013189
0.00181509
0.00175697
-0.000924968
-0.00517992
-0.00365606
-0.00236822
-0.00123029
-0.00162528
-0.00181362
-0.0017412
-0.00140067
-0.000961283
-0.000506583
-0.00026564
-0.000118338
-1.34395e-05
0.00226574
0.00223785
0.00223759
0.00223522
0.00212378
0.00209029
0.00183238
0.00138123
0.000695881
0.000133089
-3.1445e-05
0.000136709
0.000529366
0.00114903
0.00232954
0.00428858
0.00638743
-0.00119909
-0.00159375
-0.0016744
-0.00154525
-0.00123659
-0.000868759
-0.0004836
-0.00027804
-0.000139898
-2.72409e-05
0.00245448
0.00244325
0.0024877
0.0025563
0.00251361
0.00254461
0.00224929
0.00148541
5.04731e-05
-0.00102371
-0.000992653
-0.000688529
-0.000304382
-4.69948e-05
0.00127514
0.00372759
0.00657541
-0.00132552
-0.00166276
-0.00164566
-0.00146166
-0.00117438
-0.000863091
-0.000458806
-0.000259056
-0.000130883
-1.61884e-05
0.00262828
0.00263746
0.00273641
0.00289573
0.00296922
0.00313698
0.00288885
0.00176973
-0.000829222
-0.00226226
-0.00218275
-0.00158754
-0.000513615
-0.00106094
-0.000614043
0.000868004
0.00335635
-0.00163475
-0.00177556
-0.00165938
-0.00141386
-0.00110734
-0.000793536
-0.000402701
-0.000214784
-0.000100499
1.57326e-06
0.00276417
0.00279275
0.00294337
0.00319118
0.00341457
0.00378018
0.00384766
0.00345884
-0.00115056
-0.0015604
-0.00131365
-0.00058072
-0.00126249
-0.00335203
-0.0033028
-0.00252869
-0.00174978
-0.00174984
-0.00160523
-0.00134556
-0.0010365
-0.000726959
-0.000370416
-0.000201668
-9.47655e-05
-8.3729e-06
0.00283999
0.00288053
0.0030627
0.00336461
0.00371925
0.00422759
0.00455097
0.00524189
-0.000179571
-0.00129086
-0.000921414
0.000704796
0.00104455
-0.0024164
-0.00283535
-0.00222471
-0.00177656
-0.00168741
-0.00150763
-0.00125405
-0.000963557
-0.000677718
-0.000378754
-0.000216121
-0.00010345
-2.36853e-05
0.00284229
0.00288289
0.00306522
0.00336739
0.00378712
0.0043205
0.00468711
0.00563249
0.0014958
-0.00073205
-0.000385694
0.00139886
0.00191505
-0.00102928
-0.00228701
-0.00211082
-0.00179322
-0.00167639
-0.0015072
-0.0012549
-0.000967568
-0.000693076
-0.000422093
-0.000239104
-0.000112729
-2.44719e-05
0.002771
0.00279978
0.00295087
0.00319945
0.00360479
0.00404797
0.00427749
0.00501497
-0.000570877
-0.00149104
-0.00121048
2.78486e-06
0.000114018
-0.00317372
-0.00322601
-0.00265916
-0.00181431
-0.0017802
-0.00166384
-0.00140747
-0.00109025
-0.000790099
-0.000484308
-0.000262995
-0.000118815
-1.01355e-05
0.00263946
0.00264893
0.00274862
0.00290917
0.00322438
0.00347979
0.00336529
0.00291539
-0.00446504
-0.00303184
-0.00221517
-0.00144602
-0.00107569
-0.00132362
-0.00103085
-0.000341785
-0.00119789
-0.00326891
-0.00318206
-0.00254087
-0.00181607
-0.0018176
-0.00173718
-0.00149864
-0.00118659
-0.000880226
-0.000548584
-0.000297493
-0.000135185
1.75747e-06
0.00246967
0.0024588
0.00250415
0.00257424
0.00276671
0.00284484
0.00255354
0.00158937
-0.000365956
-0.00174694
-0.00170716
-0.00104013
-0.000520946
-0.000837983
7.1263e-05
0.00225645
0.00438044
-0.00150793
-0.00169543
-0.0016676
-0.00148206
-0.00121883
-0.00094284
-0.000613611
-0.00035322
-0.000175112
-8.20377e-06
0.00228456
0.00225703
0.00225773
0.00225693
0.00234224
0.00232416
0.00204791
0.00146141
0.000461279
-0.000303013
-0.000406652
-0.00019223
0.000236103
0.000807865
0.00216811
0.00448359
0.00688375
-0.00121755
-0.00149103
-0.00149855
-0.00137306
-0.00118445
-0.000966016
-0.000677441
-0.000427158
-0.000239857
-3.95902e-05
0.00210212
0.00206315
0.00203276
0.0019847
0.00199437
0.00193958
0.00170806
0.00136403
0.000875585
0.000468441
0.000344685
0.000480905
0.000823677
0.00136306
0.00220183
0.00329179
0.00583585
-0.00112634
-0.00135025
-0.00127364
-0.00118173
-0.00107864
-0.00094963
-0.000691285
-0.000472822
-0.000296806
-7.1738e-05
0.0019337
0.00188787
0.00183849
0.00176271
0.00172513
0.00166587
0.00147773
0.00126819
0.000997416
0.000769153
0.000681306
0.000761458
0.000992699
0.001319
0.00157726
0.00147403
-0.000848207
-0.00480789
-0.00372607
-0.00242523
-0.00149253
-0.00137403
-0.000964048
-0.000877631
-0.000882273
-0.000887564
-0.000652913
-0.000466681
-0.000323183
-9.6846e-05
0.00178488
0.00173559
0.00167609
0.00158636
0.00152163
0.0014715
0.00131747
0.00118469
0.00102047
0.000878647
0.000807858
0.000830311
0.000934635
0.00106381
0.00105666
0.000524873
-0.000968978
-0.00234372
-0.00226597
-0.00179869
-0.00136327
-0.00118235
-0.000875575
-0.000706862
-0.000696323
-0.000761541
-0.000611214
-0.000402735
-0.000243686
-9.50824e-05
0.00165732
0.00160681
0.00154304
0.00144841
0.00136934
0.00133207
0.0012023
0.00111306
0.00100253
0.000901509
0.00083362
0.000809901
0.000817559
0.000810618
0.000692091
0.000310426
-0.00041725
-0.00112897
-0.00137802
-0.00131201
-0.00115599
-0.00101925
-0.000872128
-0.000751147
-0.000675102
-0.000601428
-0.000517478
-0.000329856
-0.000170419
-8.26396e-05
0.00155035
0.00150016
0.00143557
0.00134134
0.00125649
0.00123286
0.00111825
0.00105284
0.000968837
0.000885852
0.000814974
0.000760415
0.000711222
0.00063731
0.000488119
0.000207344
-0.000208166
-0.000620891
-0.000853915
-0.000915949
-0.000886106
-0.000820092
-0.000738472
-0.000660096
-0.000595559
-0.000532126
-0.000413116
-0.000262122
-0.00013438
-6.67083e-05
0.00146226
0.00141336
0.00135076
0.00126485
0.00117748
0.00116214
0.00105944
0.00100469
0.000932001
0.000855428
0.000780197
0.000707453
0.000629463
0.000528993
0.000382186
0.000169952
-9.8079e-05
-0.000362975
-0.000551475
-0.000645433
-0.000669864
-0.000652722
-0.000612327
-0.00056058
-0.000501963
-0.000425321
-0.000336287
-0.000226123
-0.00011904
-6.02156e-05
0.00139173
0.00134373
0.00128005
0.00121267
0.00114349
0.00107713
0.00101236
0.000944101
0.000868611
0.000789467
0.000708411
0.000623305
0.000528639
0.000416452
0.000279218
0.000115593
-6.28129e-05
-0.000230323
-0.000359478
-0.00043895
-0.000475339
-0.000481008
-0.000465665
-0.000434563
-0.000389526
-0.000329851
-0.000256084
-0.000179469
-9.68219e-05
-4.80038e-05
0.00134024
0.00129391
0.00123304
0.00117507
0.00111348
0.00104904
0.000984819
0.000916569
0.000842686
0.000764375
0.000682137
0.000594383
0.000497968
0.000389211
0.000265452
0.000127871
-1.57344e-05
-0.000150659
-0.000260827
-0.000337378
-0.000381351
-0.000398473
-0.000394281
-0.000372563
-0.000335834
-0.000286197
-0.000226783
-0.00016514
-9.16283e-05
-4.52119e-05
0.00130694
0.00126172
0.00120257
0.00114803
0.00109102
0.00102906
0.000964989
0.000897884
0.000825735
0.00074823
0.00066556
0.00057695
0.000480723
0.000375148
0.000259619
0.000136161
1.07208e-05
-0.000106964
-0.000206292
-0.00028015
-0.000327141
-0.000349736
-0.000351563
-0.000335862
-0.000305281
-0.000262483
-0.000209151
-0.000151252
-8.27602e-05
-3.96695e-05
0.00129058
0.00124588
0.0011877
0.00113486
0.00108034
0.0010201
0.000956323
0.000889406
0.000817637
0.000740282
0.000657441
0.000568682
0.0004729
0.000369147
0.000257631
0.000140691
2.34993e-05
-8.62025e-05
-0.000180053
-0.000251866
-0.000299509
-0.000324215
-0.000328735
-0.000315885
-0.00028821
-0.000248503
-0.000198557
-0.000144259
-7.96585e-05
-3.87237e-05
0.00119169
0.00116102
0.00111575
0.00106904
0.00101895
0.000961459
0.000897167
0.000827578
0.000752624
0.000671795
0.00058492
0.000491708
0.000391497
0.000283775
0.000169096
5.0006e-05
-6.83683e-05
-0.000178637
-0.000272822
-0.000344857
-0.000392154
-0.000415085
-0.000415412
-0.000395418
-0.000357808
-0.000306072
-0.000243404
-0.000175347
-9.97229e-05
-4.12886e-05
0.0012071
0.00117626
0.00113043
0.00108267
0.00103104
0.000971953
0.000906542
0.000836129
0.000760481
0.000679181
0.000592104
0.000498695
0.000397741
0.000288
0.000169319
4.39922e-05
-8.21514e-05
-0.000199987
-0.000299618
-0.000374206
-0.000421774
-0.000443618
-0.000441941
-0.000419111
-0.000377918
-0.000322103
-0.000255205
-0.000182771
-0.000102977
-4.1891e-05
0.00123836
0.0012072
0.00116032
0.00111053
0.0010558
0.000993273
0.000925813
0.000854096
0.000777048
0.000694594
0.000607053
0.000513468
0.000411403
0.000297847
0.000170871
3.20572e-05
-0.00011114
-0.000245292
-0.000355737
-0.000434142
-0.000480668
-0.000499128
-0.000492661
-0.00046367
-0.000415204
-0.000351716
-0.000277575
-0.000197592
-0.000110517
-4.48798e-05
0.00128625
0.00125483
0.00120685
0.00115389
0.00109405
0.00102563
0.00095328
0.000878913
0.000799773
0.000716088
0.000628825
0.000536529
0.000434657
0.000316568
0.000176236
1.31692e-05
-0.000161951
-0.000326428
-0.000455944
-0.000540256
-0.000584381
-0.000596818
-0.000582096
-0.000542089
-0.00048014
-0.000402112
-0.000313711
-0.000215965
-0.00011511
-4.38565e-05
0.00135139
0.0013202
0.00127203
0.00121806
0.00114624
0.00108628
0.00100854
0.000929737
0.000847298
0.000762642
0.000677444
0.000590698
0.000496466
0.000383769
0.000239189
5.43838e-05
-0.000161388
-0.000373088
-0.000537161
-0.000637914
-0.000687736
-0.000701735
-0.000686766
-0.000643485
-0.00057391
-0.00048441
-0.000377572
-0.000251034
-0.000128108
-4.83854e-05
0.001434
0.00140298
0.00135433
0.0012981
0.00121806
0.00114825
0.00106066
0.00097219
0.00088083
0.00079123
0.000707949
0.000631338
0.000552457
0.000451189
0.000297618
6.37626e-05
-0.000245161
-0.000553319
-0.000758398
-0.000849945
-0.000876611
-0.00087392
-0.000847116
-0.000786634
-0.000691787
-0.00057185
-0.000443048
-0.000273714
-0.000125902
-4.58202e-05
0.00153498
0.00150463
0.00145673
0.0014
0.00131267
0.00123121
0.00112975
0.00102363
0.000914027
0.000812422
0.000730611
0.000672965
0.000628463
0.000565121
0.000423451
0.000123199
-0.000370554
-0.000882287
-0.00112475
-0.00115111
-0.00111536
-0.00109243
-0.00106025
-0.000981787
-0.000849308
-0.000681391
-0.000514021
-0.000302808
-0.000130505
-5.19975e-05
0.00165536
0.00162686
0.0015824
0.00152898
0.0014355
0.00134222
0.00122047
0.00108382
0.000939001
0.000810992
0.000726878
0.000699879
0.000720882
0.000750377
0.000690038
0.000337739
-0.000559259
-0.00154827
-0.00173928
-0.00157849
-0.0013914
-0.00136859
-0.00137077
-0.00128096
-0.00107607
-0.00079904
-0.000555137
-0.000291189
-0.000113766
-4.41189e-05
0.00179525
0.00177058
0.00173422
0.00169092
0.00159576
0.0014918
0.00134156
0.00115326
0.000940999
0.000756578
0.0006585
0.000672874
0.000798233
0.00101507
0.00123928
0.0011074
-0.000570279
-0.00336788
-0.00315378
-0.00236366
-0.0015482
-0.00169085
-0.0017829
-0.00169656
-0.00140119
-0.00101303
-0.000603333
-0.000308688
-0.000136306
-2.07095e-05
0.00195271
0.00193485
0.00191379
0.00189175
0.00180437
0.00169711
0.00151151
0.00123827
0.000894853
0.00059153
0.000456994
0.000512395
0.000758988
0.00124666
0.00213685
0.00290278
0.000548493
-0.004949
-0.0037514
-0.00265777
-0.00157953
-0.00176997
-0.00180911
-0.00167548
-0.00136745
-0.000982365
-0.000536744
-0.000291653
-0.000138224
-5.34767e-06
0.00212228
0.00211522
0.00211938
0.00213511
0.00207407
0.00198579
0.00177027
0.0013674
0.000761164
0.000207335
3.66244e-06
9.92672e-05
0.000420949
0.00103869
0.00254628
0.00544649
0.00806106
-0.00145658
-0.0017151
-0.00170584
-0.00153731
-0.00124283
-0.0009058
-0.000514234
-0.000300177
-0.000153028
-1.55533e-05
0.00229351
0.00230161
0.00234229
0.00241682
0.00241377
0.00239722
0.00220834
0.00166495
0.000483937
-0.000795118
-0.000942932
-0.00079499
-0.000476524
-0.000432038
0.000869399
0.00403403
0.00757412
-0.00152604
-0.00173536
-0.00166378
-0.00145784
-0.00117383
-0.000874584
-0.000474342
-0.000271171
-0.000139375
-6.28127e-06
0.0024502
0.0024764
0.00256181
0.00271377
0.00281318
0.00296583
0.00300858
0.00240798
0.00015091
-0.00187166
-0.00206699
-0.00155876
-0.000564755
-0.00113607
-0.000718281
0.000784523
0.00339265
-0.00171611
-0.00178436
-0.00164799
-0.00138894
-0.00108456
-0.000785151
-0.000410512
-0.000220187
-0.000106939
8.09816e-06
0.00257211
0.0026152
0.00274298
0.00297195
0.00320781
0.00361738
0.00424208
0.00483329
-0.00131065
-0.00145902
-0.00112324
-0.000488159
-0.00116438
-0.00371073
-0.00345897
-0.00242871
-0.00165929
-0.00167006
-0.00153362
-0.00128053
-0.000987464
-0.000702276
-0.000386103
-0.000219781
-0.000110337
-1.05232e-05
0.00264001
0.0026933
0.00284676
0.0031229
0.00347905
0.00407847
0.00510286
0.0066876
-0.000154968
-0.00104903
-0.000713118
0.000554974
0.00124222
-0.0026747
-0.0028367
-0.00216122
-0.0017292
-0.00161284
-0.00143726
-0.00119833
-0.000932775
-0.000676692
-0.000410294
-0.00024869
-0.000129652
-3.22015e-05
0.00264229
0.00269565
0.00284927
0.00312569
0.00354009
0.00417461
0.00526719
0.00704687
0.000854148
-0.000641545
-0.00036692
0.00102334
0.00204141
-0.00114536
-0.00228993
-0.00207562
-0.00175226
-0.00160898
-0.00144001
-0.00120688
-0.000947536
-0.000700937
-0.000444428
-0.000266138
-0.000137043
-3.34038e-05
0.0025789
0.00262219
0.00275046
0.00298027
0.00337816
0.0038926
0.00476975
0.00645673
-0.000451322
-0.00131984
-0.000965436
6.13198e-05
0.000325079
-0.00348909
-0.00330891
-0.00266229
-0.00182597
-0.00169963
-0.00156241
-0.00131962
-0.00103459
-0.000768809
-0.000483402
-0.00027035
-0.000132687
-1.40541e-05
0.00246129
0.00248781
0.002574
0.00272732
0.00304006
0.00330961
0.00362497
0.00416746
-0.00326062
-0.00256216
-0.00207705
-0.00143453
-0.00132651
-0.00133899
-0.000988755
-0.000291448
-0.00110302
-0.00350773
-0.00325806
-0.00244342
-0.00167911
-0.00176561
-0.00168948
-0.00145761
-0.00115806
-0.000868436
-0.000554883
-0.000301385
-0.000145255
7.78258e-06
0.00230856
0.00231704
0.00235867
0.00243479
0.00263702
0.00268156
0.00257243
0.00201922
0.000295567
-0.00159635
-0.00167359
-0.00111136
-0.000629754
-0.00102689
-0.000230955
0.00221459
0.00460743
-0.00160651
-0.00174526
-0.00169493
-0.00150311
-0.00123744
-0.000959539
-0.000633489
-0.000366776
-0.000189825
2.20987e-06
0.00214089
0.00213423
0.00213934
0.00215666
0.00226701
0.00219758
0.00198624
0.00150988
0.000667833
-0.000110748
-0.000328647
-0.000239829
7.63025e-05
0.000538071
0.00211421
0.00531778
0.00811588
-0.00140114
-0.00160822
-0.00158921
-0.00145303
-0.00125183
-0.00102036
-0.000705012
-0.000447403
-0.00025765
-2.81869e-05
0.00197447
0.00195701
0.00193686
0.00191629
0.00196394
0.00185575
0.0016556
0.00132701
0.00087792
0.000467762
0.000303652
0.000384698
0.000683766
0.00128177
0.00254458
0.00470162
0.00775173
-0.00136561
-0.00151101
-0.00146133
-0.00135181
-0.00121621
-0.00105042
-0.000733423
-0.00050679
-0.000327342
-6.75403e-05
0.00181979
0.0017955
0.00176001
0.00171808
0.00172706
0.00161554
0.00145038
0.00122764
0.000963637
0.000733377
0.000623409
0.000664971
0.000859749
0.00121725
0.0017442
0.00240748
0.000597016
-0.00439045
-0.00371147
-0.00267538
-0.00156647
-0.00147793
-0.00129291
-0.00116728
-0.00109115
-0.00101043
-0.0007118
-0.000499012
-0.000341641
-9.24904e-05
0.00168233
0.00165418
0.00161057
0.00155848
0.00154497
0.00144323
0.00131036
0.00115418
0.000984349
0.000837059
0.000752797
0.000751542
0.000827931
0.000948056
0.00100847
0.000712711
-0.000537902
-0.00220772
-0.00227437
-0.00191659
-0.00141437
-0.0012833
-0.00109115
-0.00093981
-0.000881544
-0.000870795
-0.000622534
-0.000403541
-0.000243281
-8.89786e-05
0.00156405
0.00153404
0.00148697
0.00143154
0.0014056
0.0013168
0.00120828
0.00109196
0.000971119
0.000863032
0.000786052
0.000748609
0.000740231
0.000724395
0.000623403
0.000308696
-0.00033153
-0.00103579
-0.00131492
-0.00127011
-0.00111807
-0.000999825
-0.000886207
-0.000781904
-0.000700951
-0.00060989
-0.000499568
-0.000325019
-0.000162965
-7.12238e-05
0.00146486
0.00143418
0.00138635
0.00133142
0.00129893
0.00122308
0.00113127
0.00103809
0.000942745
0.00085277
0.000775749
0.000713731
0.000656683
0.00057895
0.000437762
0.000184326
-0.000190643
-0.000578395
-0.000807575
-0.000873078
-0.000848558
-0.000792215
-0.000723922
-0.000651031
-0.000580172
-0.00050264
-0.000377902
-0.000244888
-0.000117334
-5.23984e-05
0.00138373
0.00135288
0.00130555
0.00125287
0.00121796
0.00115347
0.00107216
0.00099219
0.000909926
0.000827987
0.000749083
0.000672783
0.000591784
0.000490999