/*--------------------------------*- C++ -*----------------------------------*\
  =========                 |
  \\      /  F ield         | OpenFOAM: The Open Source CFD Toolbox
   \\    /   O peration     | Website:  https://openfoam.org
    \\  /    A nd           | Version:  10
     \\/     M anipulation  |
\*---------------------------------------------------------------------------*/
FoamFile
{
    format      ascii;
    class       volScalarField;
    location    "3.5";
    object      T;
}
// * * * * * * * * * * * * * * * * * * * * * * * * * * * * * * * * * * * * * //

dimensions      [0 0 0 1 0 0 0];

internalField   nonuniform List<scalar> 
96305
(
0.5035
0.154393
0.0332308
0.00544855
0.000717471
7.87397e-05
7.39801e-06
6.07211e-07
4.42365e-08
2.89799e-09
1.72578e-10
9.4282e-12
4.76304e-13
2.24093e-14
9.8812e-16
4.10624e-17
1.61568e-18
6.04091e-20
2.15157e-21
7.31047e-23
2.37163e-24
7.34834e-26
2.17498e-27
6.15002e-29
1.66166e-30
4.29643e-32
1.06297e-33
2.51621e-35
5.70824e-37
1.23813e-38
0.503515
0.154384
0.0332227
0.00544591
0.000716967
7.86794e-05
7.39239e-06
6.06694e-07
4.41898e-08
2.89399e-09
1.7226e-10
9.40463e-12
4.74718e-13
2.23136e-14
9.83029e-16
4.08274e-17
1.60635e-18
6.00938e-20
2.1427e-21
7.29107e-23
2.36934e-24
7.35438e-26
2.18079e-27
6.17839e-29
1.67295e-30
4.3348e-32
1.07476e-33
2.54803e-35
5.78557e-37
1.2548e-38
0.503526
0.154371
0.0332126
0.00544304
0.000716509
7.86428e-05
7.39056e-06
6.06583e-07
4.41826e-08
2.89353e-09
1.72198e-10
9.39599e-12
4.73823e-13
2.22438e-14
9.78812e-16
4.06299e-17
1.59949e-18
5.995e-20
2.14388e-21
7.3204e-23
2.38717e-24
7.43224e-26
2.20916e-27
6.26838e-29
1.69732e-30
4.3895e-32
1.0856e-33
2.56537e-35
5.79992e-37
1.25011e-38
0.503546
0.154302
0.0331582
0.00542439
0.000713563
7.81571e-05
7.32833e-06
5.99952e-07
4.35966e-08
2.84926e-09
1.69236e-10
9.21529e-12
4.63637e-13
2.17177e-14
9.5457e-16
3.96807e-17
1.571e-18
5.95208e-20
2.16196e-21
7.52661e-23
2.50922e-24
8.00431e-26
2.44273e-27
7.13144e-29
1.99006e-30
5.31033e-32
1.35115e-33
3.26078e-35
7.49463e-37
1.63797e-38
0.503694
0.154151
0.0330476
0.00533794
0.00108337
2.27814e-05
2.91807e-07
2.66885e-09
2.44499e-11
5.28882e-13
2.35717e-14
1.1155e-15
4.91586e-17
1.99889e-18
7.49978e-20
2.58561e-21
8.05918e-23
2.18261e-24
4.53752e-26
2.98282e-28
-3.72451e-29
-2.87994e-30
2.7341e-30
2.48302e-31
1.07386e-32
3.59864e-34
3.3735e-36
1.21023e-37
3.62166e-39
9.49935e-41
0.503715
0.15407
0.0329782
0.00531642
0.00107829
2.3027e-05
3.03133e-07
2.80179e-09
1.97362e-11
1.10352e-13
5.02403e-16
1.89204e-18
5.9743e-21
1.60841e-23
3.8e-26
8.43669e-29
1.19745e-31
-8.02301e-33
-5.19862e-34
-2.48517e-35
-1.03587e-36
-3.88416e-38
5.8519e-36
2.66248e-36
2.46492e-37
1.21113e-38
5.84832e-39
3.27982e-40
1.2417e-41
3.73902e-43
0.503742
0.154022
0.0329325
0.00529816
0.00107173
2.27664e-05
2.97709e-07
2.72707e-09
1.90742e-11
1.05888e-13
4.76216e-16
1.75186e-18
5.30371e-21
1.33538e-23
2.86962e-26
5.55434e-29
1.02375e-31
1.76211e-34
2.6976e-37
3.74213e-40
4.88521e-43
9.7088e-46
6.82941e-43
1.1062e-41
3.16215e-42
2.94279e-43
1.02228e-41
7.2332e-43
3.11834e-44
9.90475e-46
0.50377
0.153952
0.0328632
0.00526907
0.00106041
2.22105e-05
2.84841e-07
2.55601e-09
1.75436e-11
9.56509e-14
4.20472e-16
1.49161e-18
4.24683e-21
9.62789e-24
1.72118e-26
2.35694e-29
2.78328e-32
5.67157e-35
2.17373e-37
7.48618e-40
4.91332e-42
1.58596e-44
3.38854e-47
6.62099e-50
9.76807e-49
7.1545e-49
1.56313e-44
1.30065e-45
6.26782e-47
2.09966e-48
0.503805
0.153841
0.0327538
0.00522149
0.00104106
2.12049e-05
2.61435e-07
2.24792e-09
1.48449e-11
7.8462e-14
3.33639e-16
1.10367e-18
2.64619e-21
4.08123e-24
3.34348e-27
1.96691e-30
-5.51083e-34
-1.38902e-36
-4.55039e-39
-9.19817e-42
-1.76797e-44
5.52648e-44
2.81515e-43
5.56954e-46
8.08116e-49
-2.68289e-46
6.82745e-41
1.323e-42
1.99464e-44
2.64226e-46
0.503841
0.153669
0.0325841
0.00514582
0.00100928
1.95073e-05
2.2243e-07
1.74912e-09
1.06398e-11
5.05562e-14
1.68534e-16
3.45165e-19
3.98472e-22
2.86147e-25
2.07498e-28
-4.79369e-31
1.21516e-36
1.26805e-43
4.64533e-47
2.77441e-52
-4.41963e-53
6.16686e-39
1.36522e-37
1.34638e-39
1.96667e-43
-7.47157e-43
6.90699e-36
3.09192e-38
1.58521e-40
9.78948e-43
0.503885
0.15342
0.0323357
0.00503309
0.000960542
1.68807e-05
1.64795e-07
1.06355e-09
4.98216e-12
1.73621e-14
5.54854e-17
1.94995e-19
6.78709e-22
1.73543e-24
2.36542e-27
-1.69491e-30
6.71599e-36
3.80501e-47
9.68025e-35
3.22516e-33
1.07402e-34
4.55611e-37
2.75429e-36
2.36387e-32
2.35364e-34
1.74348e-36
1.0469e-38
0.503942
0.153093
0.0320053
0.00488037
0.000892418
1.32877e-05
9.50471e-08
3.71866e-10
1.21333e-12
2.23391e-14
4.40917e-16
4.49017e-18
2.74413e-20
6.61543e-22
1.11466e-23
9.65272e-27
4.17943e-33
3.89399e-43
1.15697e-30
6.09734e-29
2.13996e-30
1.18888e-32
5.94781e-34
8.52183e-30
1.09398e-31
9.99351e-34
7.47892e-36
0.504005
0.152723
0.0316249
0.00470225
0.00081018
9.22021e-06
3.36567e-08
3.03702e-11
2.2828e-14
7.3753e-17
5.63616e-20
5.52345e-20
6.05421e-22
7.11503e-14
2.8873e-16
2.11436e-18
9.91718e-26
-1.50913e-38
4.58069e-26
1.66631e-24
3.55124e-26
1.90473e-28
4.46265e-31
2.79093e-27
4.26756e-29
4.70201e-31
3.95166e-33
0.504073
0.152391
0.0312776
0.00453836
0.000731449
5.79982e-06
4.57058e-09
1.02137e-12
5.93176e-14
5.2482e-08
3.49952e-11
-7.81877e-11
2.2048e-15
-8.52684e-20
8.51254e-17
1.61288e-16
-4.4565e-22
1.96658e-18
7.21035e-20
6.14975e-22
2.78399e-24
7.1597e-27
1.17795e-24
1.91157e-26
2.20141e-28
1.97015e-30
0.504106
0.152188
0.0310673
0.00443927
0.00068048
3.94078e-06
4.49678e-11
1.27427e-12
6.16214e-08
0.000301428
0.000861301
0.0142385
0.00172734
9.2145e-05
2.27884e-06
3.20685e-08
2.2889e-10
1.07787e-12
3.58748e-15
8.61384e-18
2.5391e-20
7.06741e-23
9.87262e-22
1.27424e-23
1.42816e-25
1.40734e-27
0.504106
0.152189
0.0310673
0.00443911
0.000673908
3.60143e-06
3.95914e-11
1.03477e-12
0.00523776
19.3806
572.867
7704.73
0.454631
0.0187593
0.00069477
1.68161e-05
2.52827e-07
2.47799e-09
1.6433e-11
7.36901e-14
2.22325e-16
5.8391e-19
7.91599e-20
1.04672e-21
1.18587e-23
1.1616e-25
0.504071
0.152387
0.0312754
0.00453752
0.000714038
4.71594e-06
3.39718e-10
1.72069e-12
1.23964e-05
0.00151804
3.62263e-05
-0.00162845
-0.00039674
5.09228e-06
1.40135e-06
8.2904e-07
1.62539e-09
1.05221e-12
1.28486e-14
7.14604e-17
2.43742e-19
5.11924e-22
2.29576e-22
4.24638e-24
5.33425e-26
5.11801e-28
0.504007
0.152721
0.0316219
0.00470093
0.000788051
7.47616e-06
1.51069e-08
9.66738e-16
7.94193e-17
4.52201e-23
1.6498e-28
3.27518e-24
6.13437e-12
4.28949e-07
4.89271e-10
-3.19283e-11
-4.26594e-15
-9.97624e-20
4.00245e-16
3.17189e-15
-2.98497e-22
1.2139e-21
6.26853e-20
3.64722e-21
2.50841e-23
6.2508e-26
8.91371e-25
1.61316e-26
1.91698e-28
1.62023e-30
0.50394
0.153088
0.0320008
0.00487857
0.000871913
1.14085e-05
6.2052e-08
1.46876e-10
1.33759e-12
4.8973e-14
6.13482e-16
3.36532e-18
-3.27823e-20
4.10958e-15
5.1529e-17
6.29885e-19
-1.1101e-25
-4.42315e-39
8.34834e-29
4.55679e-25
1.81631e-25
2.15292e-27
5.70812e-30
3.91169e-27
6.32206e-29
6.32879e-31
4.27877e-33
0.503886
0.153414
0.032331
0.00503093
0.000944731
1.53141e-05
1.30789e-07
6.92801e-10
2.59134e-12
1.08343e-14
8.17207e-17
1.0577e-18
7.94114e-21
6.32896e-23
1.22569e-24
7.18014e-27
3.95512e-32
2.6448e-45
1.35749e-33
4.45659e-30
7.87074e-30
1.54305e-31
6.31433e-33
1.73523e-29
2.52958e-31
2.08755e-33
9.77808e-36
0.503838
0.153659
0.0325761
0.0051432
0.000997969
1.8369e-05
1.95327e-07
1.41274e-09
7.77016e-12
3.09211e-14
8.22558e-17
1.56565e-19
2.414e-22
3.1772e-25
3.95388e-28
-5.34231e-31
4.917e-36
9.59061e-50
4.06224e-39
1.56249e-35
1.99177e-34
7.0429e-36
4.51858e-35
6.86715e-32
9.19472e-34
6.3224e-36
2.20083e-38
0.503841
0.153849
0.0327516
0.00521951
0.00103334
2.04359e-05
2.42602e-07
1.99996e-09
1.27042e-11
6.46924e-14
2.55068e-16
7.0656e-19
1.20247e-21
1.07221e-24
5.28603e-28
-9.83409e-31
4.00306e-35
4.00907e-42
2.49396e-45
-1.04553e-50
-3.94724e-51
9.44483e-48
1.05072e-43
3.9888e-40
1.58516e-40
1.0851e-37
1.57891e-34
2.06489e-36
1.22451e-38
4.09036e-41
0.503739
0.153948
0.0328586
0.00526655
0.00105518
2.17039e-05
2.72429e-07
2.38837e-09
1.60279e-11
8.55114e-14
3.67154e-16
1.25965e-18
3.3683e-21
6.67461e-24
8.94941e-27
7.62496e-30
8.65099e-33
6.08235e-34
5.4838e-36
1.98915e-38
4.53879e-41
7.32847e-44
8.24343e-47
7.38792e-47
4.12997e-46
2.04384e-42
1.06112e-37
2.67187e-39
4.14796e-41
5.5874e-43
0.503744
0.154005
0.0329248
0.00529563
0.00106794
2.24203e-05
2.89348e-07
2.61362e-09
1.80169e-11
9.84695e-14
4.342e-16
1.55139e-18
4.49725e-21
1.06301e-23
2.09336e-26
3.57178e-29
5.374e-32
7.72579e-35
1.25016e-37
2.25818e-40
4.26729e-43
7.44414e-46
1.15435e-48
4.49846e-51
1.0227e-50
-1.79629e-47
8.16023e-41
2.26401e-42
3.8695e-44
6.17557e-46
0.503716
0.154066
0.0329729
0.00531369
0.00107579
2.28305e-05
2.98658e-07
2.7354e-09
1.9101e-11
1.05733e-13
4.74519e-16
1.74918e-18
5.35048e-21
1.37632e-23
3.05352e-26
6.11643e-29
1.17707e-31
2.21834e-34
3.46177e-37
-1.28167e-39
-6.65754e-41
-2.26341e-42
-1.3473e-43
1.32554e-43
7.80661e-43
2.20165e-43
3.23723e-40
2.24249e-41
1.04079e-42
4.03906e-44
0.503696
0.154145
0.0330423
0.0053355
0.00107912
2.28233e-05
2.97796e-07
2.72057e-09
1.89082e-11
1.04214e-13
4.69979e-16
1.84875e-18
9.63548e-21
1.58595e-22
4.43966e-24
1.13057e-25
1.98823e-27
-1.07528e-29
-3.44126e-30
-2.22277e-31
-1.08252e-32
-4.58167e-34
-1.76711e-35
2.61744e-36
2.34673e-36
1.97813e-37
7.45488e-37
3.00191e-38
9.97747e-40
2.96264e-41
0.503548
0.154297
0.0331529
0.005422
0.000712872
7.80191e-05
7.30662e-06
5.97158e-07
4.32939e-08
2.82085e-09
1.66897e-10
9.04424e-12
4.52294e-13
2.10372e-14
9.17061e-16
3.77679e-17
1.47961e-18
5.54138e-20
1.98715e-21
6.81776e-23
2.235e-24
6.99608e-26
2.09111e-27
5.97347e-29
1.63344e-30
4.28223e-32
1.07495e-33
2.57782e-35
5.9186e-37
1.29926e-38
0.503528
0.154366
0.0332072
0.00544057
0.000715799
7.84968e-05
7.36733e-06
6.03568e-07
4.38556e-08
2.86291e-09
1.69683e-10
9.21241e-12
4.61771e-13
2.15201e-14
9.38897e-16
3.85908e-17
1.50249e-18
5.56168e-20
1.96139e-21
6.59453e-23
2.11369e-24
6.45927e-26
1.88287e-27
5.24116e-29
1.39426e-30
3.54906e-32
8.65231e-34
2.02228e-35
4.53988e-37
9.78187e-39
0.503517
0.15438
0.0332179
0.00544354
0.000716276
7.85357e-05
7.36954e-06
6.0373e-07
4.38683e-08
2.86395e-09
1.69814e-10
9.22528e-12
4.62933e-13
2.16083e-14
9.44339e-16
3.88548e-17
1.51275e-18
5.5931e-20
1.96849e-21
6.60385e-23
2.11321e-24
6.4536e-26
1.88235e-27
5.24892e-29
1.40087e-30
3.5812e-32
8.77946e-34
2.06485e-35
4.66704e-37
1.0147e-38
0.503502
0.154388
0.0332256
0.00544613
0.00071677
7.85947e-05
7.37511e-06
6.04253e-07
4.39172e-08
2.86826e-09
1.70152e-10
9.25261e-12
4.64778e-13
2.17226e-14
9.50425e-16
3.91518e-17
1.52532e-18
5.64111e-20
1.98537e-21
6.65986e-23
2.13146e-24
6.51314e-26
1.90175e-27
5.31097e-29
1.41973e-30
3.63761e-32
8.9375e-34
2.10746e-35
4.78129e-37
1.04403e-38
0.503963
0.157191
0.0350829
0.00609186
0.000866851
0.000104694
1.10056e-05
1.02607e-06
8.60967e-08
6.57925e-09
4.62335e-10
3.012e-11
1.83181e-12
1.04622e-13
5.64081e-15
2.88368e-16
1.40275e-17
6.51038e-19
2.88796e-20
1.22563e-21
4.97907e-23
1.93633e-24
7.20868e-26
2.56901e-27
8.76449e-29
2.86352e-30
8.96062e-32
2.68724e-33
7.73555e-35
2.13498e-36
0.503951
0.157197
0.0350922
0.00609643
0.000868194
0.000104971
1.10484e-05
1.03141e-06
8.66621e-08
6.63181e-09
4.66711e-10
3.04524e-11
1.85512e-12
1.06155e-13
5.73639e-15
2.94066e-16
1.43539e-17
6.68939e-19
2.98142e-20
1.27183e-21
5.19481e-23
2.03131e-24
7.6036e-26
2.72404e-27
9.33929e-29
3.06509e-30
9.63274e-32
2.89977e-33
8.37575e-35
2.31869e-36
0.503922
0.157209
0.0351136
0.0061068
0.000871226
0.000105588
1.11435e-05
1.04341e-06
8.79634e-08
6.75619e-09
4.77333e-10
3.12743e-11
1.91347e-12
1.10013e-13
5.9767e-15
3.08332e-16
1.51649e-17
7.13068e-19
3.21021e-20
1.38428e-21
5.71798e-23
2.26138e-24
8.56134e-26
3.10109e-27
1.07455e-28
3.56101e-30
1.12922e-31
3.42741e-33
9.97322e-35
2.77909e-36
0.503867
0.157218
0.0351461
0.00612595
0.000877305
0.000106516
1.12553e-05
1.05516e-06
8.90762e-08
6.85132e-09
4.84686e-10
3.17852e-11
1.94558e-12
1.11863e-13
6.078e-15
3.1385e-16
1.54764e-17
7.31166e-19
3.31389e-20
1.44071e-21
6.00449e-23
2.39717e-24
9.16287e-26
3.35064e-27
1.17123e-28
3.91109e-30
1.24787e-31
3.80645e-33
1.11219e-34
3.11151e-36
0.503813
0.157205
0.0351777
0.00615261
0.00157428
6.8692e-05
1.94029e-06
3.84025e-08
5.71799e-10
7.44219e-12
1.35798e-13
5.19113e-15
2.68066e-16
1.39224e-17
6.92831e-19
3.29881e-20
1.50685e-21
6.61642e-23
2.79271e-24
1.13262e-25
4.41034e-27
1.65011e-28
5.92973e-30
2.0432e-31
8.0418e-32
8.84973e-33
1.44201e-34
6.94651e-36
2.75002e-37
9.50588e-39
0.503741
0.157213
0.0352129
0.00617237
0.00158463
6.96464e-05
1.98074e-06
3.93195e-08
5.74609e-10
6.44785e-12
5.73451e-14
4.14187e-16
2.47869e-18
1.25241e-20
5.45158e-23
2.09308e-25
7.32158e-28
2.6232e-30
1.85963e-32
4.30584e-34
1.36629e-35
4.28053e-37
1.28412e-38
3.66072e-40
1.93215e-38
1.73088e-38
1.19619e-37
9.61777e-39
5.04541e-40
2.094e-41
0.503684
0.157224
0.0352393
0.00618523
0.0015908
7.03144e-05
2.01642e-06
4.04611e-08
5.99285e-10
6.83104e-12
6.17563e-14
4.5253e-16
2.73369e-18
1.38389e-20
5.99462e-23
2.28963e-25
8.00643e-28
2.62253e-30
7.92075e-33
2.13755e-35
5.07459e-38
1.05808e-40
1.93886e-43
4.07779e-46
7.69784e-45
3.78601e-44
1.40635e-40
1.50563e-41
9.48598e-43
4.43173e-44
0.503618
0.157221
0.0352541
0.00619253
0.00159409
7.06886e-05
2.03952e-06
4.13418e-08
6.21872e-10
7.23493e-12
6.69072e-14
5.00245e-16
3.05639e-18
1.54119e-20
6.523e-23
2.39841e-25
8.08827e-28
2.62285e-30
8.01548e-33
2.18612e-35
5.26872e-38
1.14407e-40
2.24941e-43
3.94909e-46
6.53755e-49
3.45493e-49
2.84507e-43
3.51403e-44
2.45383e-45
1.1996e-46
0.503538
0.157198
0.0352516
0.00619153
0.00159296
7.06025e-05
2.04177e-06
4.17265e-08
6.3837e-10
7.62165e-12
7.26539e-14
5.57491e-16
3.43877e-18
1.68708e-20
6.47718e-23
1.96617e-25
1.84104e-28
1.11e-32
2.82525e-35
9.30298e-38
9.56019e-42
2.44911e-43
1.14933e-42
2.33841e-45
2.50877e-48
-3.93986e-49
1.32628e-43
4.01222e-45
9.29283e-47
1.97988e-48
0.503437
0.15714
0.0352205
0.00617649
0.00158431
6.96885e-05
2.00254e-06
4.09377e-08
6.34922e-10
7.79592e-12
7.67193e-14
5.99104e-16
3.62495e-18
1.63086e-20
5.11305e-23
2.03053e-25
2.59088e-30
1.32224e-40
1.31626e-45
8.62912e-47
7.64392e-49
1.24895e-38
1.51119e-37
1.07867e-39
1.69018e-43
-9.80213e-45
1.07782e-38
1.06977e-40
9.43418e-43
8.36116e-45
0.503317
0.157033
0.0351485
0.00614023
0.00156381
6.73855e-05
1.88887e-06
3.78632e-08
5.88118e-10
7.46418e-12
7.76529e-14
6.53493e-16
4.38108e-18
2.27665e-20
8.43569e-23
1.79802e-25
1.10615e-29
1.71079e-39
2.44538e-34
7.1144e-33
1.73473e-34
6.1324e-37
1.75485e-38
1.48281e-34
9.53946e-37
3.46221e-39
8.26867e-42
0.503188
0.156876
0.0350249
0.00607666
0.00152739
6.31443e-05
1.66949e-06
3.16098e-08
4.89279e-10
6.86756e-12
8.48439e-14
8.18671e-16
5.78222e-18
5.82317e-20
8.27951e-22
5.01615e-24
6.66824e-28
1.30287e-35
5.53907e-30
3.52645e-28
8.94375e-30
3.86581e-32
7.00017e-35
9.06619e-32
1.01753e-33
8.07147e-36
4.54724e-38
0.503068
0.156683
0.0348603
0.00598965
0.00147589
5.698e-05
1.34781e-06
3.99159e-08
6.56888e-11
6.37933e-14
2.1615e-17
2.89227e-19
1.82352e-16
4.37868e-12
9.77989e-15
3.60402e-17
4.47356e-23
-4.25915e-32
5.95748e-25
2.45145e-23
3.30746e-25
1.2388e-27
2.19881e-30
3.84753e-29
5.9215e-31
6.03389e-33
4.68661e-35
0.502976
0.1565
0.0346965
0.00590114
0.00142149
5.03934e-05
1.01088e-06
2.15434e-08
3.89879e-10
7.10097e-07
3.79522e-09
-1.79377e-09
1.39555e-12
6.80129e-15
5.57747e-16
5.99333e-15
-1.46049e-20
7.5482e-17
1.90307e-18
1.13565e-20
3.33436e-23
5.4674e-26
1.75179e-26
2.69865e-28
2.91015e-30
2.49197e-32
0.502922
0.156382
0.0345918
0.00584456
0.00138476
4.5956e-05
8.05752e-07
1.19549e-08
6.61453e-05
0.0120344
0.134878
4.00475
0.0118805
0.000189934
2.94623e-06
2.22112e-07
3.34786e-09
2.27191e-11
1.05075e-13
3.325e-16
7.13198e-19
9.94732e-22
1.55218e-23
1.77723e-25
1.81486e-27
1.70021e-29
0.502925
0.156384
0.0345917
0.00584435
0.00138083
4.51891e-05
7.70111e-07
1.05398e-08
3.06973
3612.77
115016
2.10554e+06
118.716
2.96069
0.0911848
0.00191413
2.43617e-05
1.95234e-07
1.02087e-09
3.45187e-12
7.36606e-15
9.99992e-18
1.10764e-21
1.25217e-23
1.25793e-25
1.15565e-27
0.502974
0.156497
0.0346945
0.00590027
0.00141085
4.82055e-05
8.95027e-07
1.46682e-08
0.00440509
0.060243
0.00989445
0.381852
0.00822504
4.90659e-06
-7.33031e-08
2.74226e-07
1.4768e-09
2.76415e-12
4.54184e-14
3.39227e-16
1.15644e-18
2.00867e-21
3.11534e-24
5.3356e-26
6.42972e-28
6.38958e-30
0.503067
0.156683
0.0348582
0.00598854
0.00146258
5.41188e-05
1.18205e-06
2.9414e-08
5.7149e-12
1.78636e-22
1.1224e-24
3.47799e-18
4.85235e-08
2.41237e-06
3.31705e-09
-6.85011e-10
2.67415e-12
2.93212e-15
9.14524e-16
3.76833e-15
-1.75983e-21
5.06953e-21
6.94266e-19
1.84668e-20
9.77293e-23
1.96163e-25
1.17964e-26
2.21564e-28
2.76135e-30
2.71635e-32
0.503183
0.156873
0.035022
0.00607533
0.00151572
6.06517e-05
1.52576e-06
2.75185e-08
3.98978e-10
5.46511e-12
5.35847e-14
2.48754e-16
1.9559e-16
3.18601e-13
3.2118e-15
1.21474e-17
2.18639e-21
6.85719e-35
1.34637e-27
6.81893e-24
8.32353e-25
6.57055e-27
1.41466e-29
4.8917e-29
8.34186e-31
9.82565e-33
8.79541e-35
0.503314
0.15703
0.0351454
0.00613887
0.00155551
6.56719e-05
1.79313e-06
3.5044e-08
5.42212e-10
7.1447e-12
8.05065e-14
7.57405e-16
5.75865e-18
3.62744e-20
2.50433e-22
1.46447e-24
7.92468e-28
4.06895e-38
1.46034e-32
5.48464e-29
2.84594e-29
3.58438e-31
9.09087e-34
1.79549e-31
2.70181e-33
2.59271e-35
1.907e-37
0.50345
0.157138
0.0352171
0.00617521
0.001579
6.86625e-05
1.95015e-06
3.95221e-08
6.12806e-10
7.60163e-12
7.58614e-14
5.98534e-16
3.65054e-18
1.66202e-20
5.25146e-23
1.91292e-25
1.66906e-30
1.18108e-42
1.30116e-37
2.95368e-34
6.31962e-34
1.32178e-35
2.46412e-37
4.58222e-34
6.09256e-36
4.79253e-38
2.80235e-40
0.503534
0.157202
0.0352515
0.00619041
0.00158969
7.00481e-05
2.01722e-06
4.12014e-08
6.33582e-10
7.64887e-12
7.38415e-14
5.70039e-16
3.46988e-18
1.61586e-20
5.48829e-23
2.45011e-25
1.64966e-29
1.30572e-36
8.45043e-43
4.03909e-43
-5.27804e-50
7.27675e-46
6.48345e-42
3.36847e-39
2.55786e-40
4.09468e-40
6.94184e-37
1.05763e-38
9.34993e-41
6.63585e-43
0.503598
0.157214
0.0352526
0.00619166
0.00159203
7.04054e-05
2.03011e-06
4.12444e-08
6.24083e-10
7.32649e-12
6.84637e-14
5.15677e-16
3.14929e-18
1.56191e-20
6.32442e-23
2.1435e-25
6.59004e-28
2.10479e-30
6.94103e-33
1.99262e-35
4.63069e-38
8.49048e-41
1.17293e-43
5.22035e-46
8.49585e-46
4.46818e-45
8.4685e-41
3.76228e-42
1.03458e-43
2.30914e-45
0.503681
0.157217
0.0352352
0.00618394
0.00158966
7.01856e-05
2.01459e-06
4.05309e-08
6.03156e-10
6.91913e-12
6.29606e-14
4.6328e-16
2.79635e-18
1.40284e-20
5.96798e-23
2.22833e-25
7.65261e-28
2.48077e-30
7.38827e-33
1.94119e-35
4.43813e-38
8.86046e-41
1.55546e-43
2.42815e-46
3.45055e-49
-3.27911e-50
6.82103e-44
7.62988e-45
2.30834e-45
4.03912e-46
0.503741
0.157212
0.0352112
0.00617145
0.00158402
6.96732e-05
1.98581e-06
3.95419e-08
5.80159e-10
6.53799e-12
5.83602e-14
4.22329e-16
2.5237e-18
1.26794e-20
5.46613e-23
2.07613e-25
7.15759e-28
2.2881e-30
6.75247e-33
1.80557e-35
4.35527e-38
1.08062e-40
6.42243e-43
1.18907e-44
2.57624e-46
8.50989e-47
-1.84306e-41
1.80124e-41
5.65437e-42
6.77677e-43
0.503811
0.157203
0.0351762
0.0061517
0.00157474
6.87659e-05
1.94163e-06
3.82399e-08
5.53777e-10
6.15131e-12
5.41388e-14
3.87304e-16
2.32033e-18
1.28517e-20
1.11873e-22
2.90133e-24
1.13954e-25
4.56889e-27
1.77154e-28
6.59449e-30
2.34984e-31
8.01569e-33
2.61407e-34
8.16502e-36
2.44045e-37
6.91118e-39
-1.70159e-36
2.01035e-37
2.3232e-38
1.46098e-39
0.503865
0.157216
0.0351445
0.00612513
0.000877022
0.000106452
1.12433e-05
1.05334e-06
8.88348e-08
6.82367e-09
4.81864e-10
3.1532e-11
1.92503e-12
1.10333e-13
5.97311e-15
3.07178e-16
1.50802e-17
7.09082e-19
3.1978e-20
1.38275e-21
5.73005e-23
2.27404e-24
8.64464e-26
3.14865e-27
1.09971e-28
3.68386e-30
1.18426e-31
3.65413e-33
1.08358e-34
3.08319e-36
0.503921
0.157207
0.0351116
0.00610591
0.000870938
0.00010552
1.1131e-05
1.0415e-06
8.77181e-08
6.72857e-09
4.74591e-10
3.10328e-11
1.894e-12
1.08578e-13
5.87883e-15
3.0214e-16
1.48004e-17
6.92903e-19
3.10506e-20
1.33277e-21
5.47946e-23
2.15747e-24
8.13883e-26
2.94207e-27
1.01956e-28
3.38919e-30
1.0811e-31
3.3104e-33
9.7427e-35
2.75154e-36
0.503949
0.157195
0.0350908
0.00609564
0.000867932
0.000104907
1.10364e-05
1.02956e-06
8.64251e-08
6.60534e-09
4.64151e-10
3.02228e-11
1.83693e-12
1.04822e-13
5.64723e-15
2.88497e-16
1.40289e-17
6.5121e-19
2.89068e-20
1.22821e-21
4.99689e-23
1.94739e-24
7.27103e-26
2.60203e-27
8.92994e-29
2.93958e-30
9.28784e-32
2.81698e-33
8.21332e-35
2.29961e-36
0.503961
0.157189
0.0350815
0.00609109
0.00086658
0.000104629
1.09935e-05
1.02424e-06
8.58613e-08
6.55312e-09
4.59781e-10
2.98987e-11
1.81417e-12
1.03348e-13
5.5553e-15
2.83065e-16
1.37211e-17
6.3445e-19
2.80381e-20
1.1855e-21
4.79976e-23
1.8612e-24
6.9161e-26
2.46353e-27
8.41451e-29
2.7582e-30
8.67681e-32
2.62101e-33
7.61281e-35
2.12397e-36
0.503255
0.156112
0.0344525
0.00588165
0.000818789
9.63609e-05
9.84141e-06
8.89623e-07
7.22868e-08
5.34554e-09
3.63439e-10
2.29136e-11
1.34938e-12
7.46923e-14
3.90731e-15
1.94054e-16
9.18383e-18
4.15329e-19
1.79828e-20
7.46262e-22
2.97045e-23
1.13429e-24
4.15595e-26
1.46122e-27
4.93114e-29
1.59769e-30
4.97095e-32
1.48614e-33
4.27514e-35
1.18298e-36
0.503259
0.156116
0.0344554
0.00588303
0.000819215
9.64539e-05
9.85691e-06
8.91702e-07
7.25185e-08
5.36798e-09
3.65368e-10
2.30632e-11
1.36007e-12
7.54076e-14
3.95269e-15
1.96811e-16
9.3444e-18
4.24252e-19
1.84527e-20
7.69629e-22
3.07953e-23
1.1823e-24
4.35562e-26
1.53951e-27
5.22144e-29
1.6998e-30
5.31237e-32
1.59467e-33
4.60445e-35
1.27846e-36
0.503263
0.156124
0.0344613
0.00588585
0.000820081
9.66453e-05
9.88888e-06
8.95978e-07
7.30006e-08
5.41516e-09
3.69468e-10
2.33849e-11
1.38325e-12
7.69667e-14
4.05216e-15
2.02878e-16
9.69917e-18
4.44057e-19
1.95004e-20
8.21873e-22
3.32453e-23
1.29055e-24
4.80761e-26
1.7178e-27
5.88752e-29
1.93558e-30
6.10655e-32
1.84938e-33
5.38437e-35
1.5067e-36
0.503273
0.156136
0.0344695
0.00588963
0.000821469
9.67141e-05
9.88597e-06
8.95354e-07
7.29678e-08
5.41688e-09
3.70009e-10
2.34496e-11
1.38906e-12
7.74224e-14
4.08607e-15
2.0536e-16
9.87609e-18
4.55922e-19
2.02304e-20
8.62735e-22
3.53393e-23
1.38952e-24
5.24262e-26
1.89658e-27
6.57491e-29
2.18373e-30
6.95149e-32
2.1219e-33
6.21938e-35
1.75095e-36
0.503291
0.156153
0.0344783
0.00589554
0.00147373
6.15745e-05
1.64451e-06
3.06201e-08
4.30792e-10
5.41625e-12
1.00997e-13
3.93469e-15
1.99893e-16
1.01386e-17
4.92926e-19
2.29646e-20
1.02792e-21
4.42951e-23
1.83809e-24
7.34088e-26
2.82151e-27
1.04318e-28
3.71286e-30
6.02524e-31
1.09792e-31
6.61155e-33
9.17046e-35
4.29866e-36
1.68059e-37
5.78271e-39
0.5033
0.156161
0.0344838
0.00589864
0.0014763
6.19227e-05
1.66243e-06
3.10473e-08
4.28311e-10
4.56393e-12
3.88515e-14
2.71205e-16
1.58614e-18
7.92548e-21
3.45185e-23
1.33985e-25
4.77755e-28
1.76266e-30
1.29331e-32
3.01078e-34
9.56102e-36
3.01912e-37
9.17329e-39
7.3162e-38
1.59434e-37
2.58933e-38
9.01338e-38
6.97006e-39
3.59266e-40
1.47848e-41
0.503309
0.156162
0.0344835
0.00589942
0.0014777
6.21944e-05
1.68039e-06
3.16961e-08
4.43413e-10
4.81008e-12
4.17918e-14
2.97858e-16
1.77486e-18
9.00237e-21
3.9687e-23
1.56236e-25
5.67243e-28
1.945e-30
6.25306e-33
1.84013e-35
4.90908e-38
1.18933e-40
2.61974e-43
2.63968e-44
3.48659e-43
1.25048e-43
1.23529e-40
1.29521e-41
8.1713e-43
3.86291e-44
0.503314
0.156151
0.0344718
0.00589543
0.001477
6.23057e-05
1.69348e-06
3.23049e-08
4.60219e-10
5.11907e-12
4.58271e-14
3.36839e-16
2.06161e-18
1.06453e-20
4.72213e-23
1.86109e-25
6.90164e-28
2.54039e-30
9.15758e-33
3.05952e-35
9.24472e-38
2.52258e-40
6.20369e-43
1.36554e-45
5.50733e-48
1.69804e-48
2.64672e-43
3.33721e-44
2.41164e-45
1.23878e-46
0.503316
0.15612
0.0344417
0.0058832
0.00147267
6.21146e-05
1.69541e-06
3.27357e-08
4.77421e-10
5.50425e-12
5.15299e-14
3.97001e-16
2.53237e-18
1.33986e-20
5.89613e-23
2.20012e-25
2.97689e-28
2.07002e-32
5.57198e-35
1.72443e-37
1.95361e-41
3.56845e-45
2.78176e-46
9.45583e-49
2.97502e-51
-4.29161e-52
8.47041e-46
9.96893e-47
7.48527e-48
3.92853e-49
0.503316
0.156058
0.0343835
0.00585793
0.00146229
6.13647e-05
1.67384e-06
3.26481e-08
4.89972e-10
5.94158e-12
5.94393e-14
4.91444e-16
3.34144e-18
1.84156e-20
7.88411e-23
4.54544e-25
1.17865e-29
7.89532e-40
5.67581e-46
3.59152e-46
7.86554e-52
1.51135e-41
3.81751e-41
5.75674e-44
3.98119e-48
-2.91973e-47
1.39073e-41
2.04212e-43
2.56612e-45
3.09654e-47
0.503316
0.155956
0.0342855
0.00581385
0.00144263
5.96884e-05
1.60801e-06
3.13642e-08
4.8465e-10
6.29085e-12
6.92802e-14
6.42897e-16
4.96236e-18
3.09526e-20
1.42232e-22
3.60422e-25
2.15848e-29
2.49328e-42
7.1575e-37
3.92584e-36
1.9457e-38
1.97685e-41
1.83515e-41
5.0305e-38
2.77813e-40
1.59833e-42
7.85221e-45
0.503312
0.15581
0.0341432
0.0057474
0.00141109
5.66845e-05
1.47017e-06
2.76988e-08
4.2589e-10
5.98845e-12
7.52014e-14
7.01942e-16
4.37598e-18
1.9181e-20
6.84488e-23
1.73456e-25
1.50697e-29
2.68019e-37
1.1199e-31
6.31615e-31
4.27025e-33
6.66261e-36
5.65732e-39
3.47915e-36
3.16131e-38
1.69841e-40
1.18863e-42
0.503324
0.155636
0.0339701
0.00566346
0.00136872
5.22496e-05
1.23968e-06
3.69332e-08
5.81603e-11
4.94607e-14
1.28579e-17
8.71379e-20
5.06702e-19
1.1158e-14
1.86201e-17
5.95372e-20
1.93498e-26
-2.13955e-34
1.18719e-24
8.00935e-26
3.64951e-28
6.33629e-31
6.09204e-34
2.77157e-33
4.35949e-35
4.49548e-37
3.90062e-39
0.503329
0.155474
0.033806
0.00558192
0.00132517
4.73652e-05
9.67484e-07
1.96376e-08
5.71142e-13
7.28129e-09
1.22997e-11
-8.94493e-12
3.55612e-16
1.28939e-17
8.1221e-17
1.62839e-17
-2.08703e-22
5.73476e-19
3.74477e-21
1.13018e-23
1.88505e-26
1.92213e-29
1.99552e-30
2.9996e-32
3.39862e-34
3.75499e-36
0.503334
0.155375
0.0337048
0.00553137
0.0012964
4.40414e-05
7.98373e-07
1.14924e-08
1.14173e-07
0.000372545
0.000684208
0.0151472
1.87126e-05
3.24074e-07
5.72091e-09
5.23355e-10
6.21825e-12
3.02126e-14
9.31937e-17
1.9541e-19
2.75881e-22
2.63978e-25
3.54155e-27
4.47162e-29
5.21612e-31
5.72906e-33
0.503335
0.155376
0.0337038
0.00553109
0.00129336
4.34348e-05
7.67932e-07
1.03271e-08
0.00551393
21.3201
884.941
12046.2
0.461236
0.00954488
0.000265818
4.68422e-06
4.59164e-08
2.61188e-10
9.11618e-13
1.997e-15
2.95895e-18
3.04557e-21
3.09617e-25
3.88474e-27
4.48626e-29
4.86088e-31
0.503329
0.155472
0.0338036
0.00558098
0.00131694
4.56518e-05
8.67759e-07
1.36194e-08
7.92649e-06
0.00129437
4.65472e-05
0.00138735
4.77119e-07
1.33153e-08
3.73228e-10
5.67608e-10
4.61794e-12
1.07102e-14
7.13694e-17
2.82862e-19
6.23604e-22
8.21354e-25
7.46057e-28
1.52013e-29
2.27424e-31
2.87412e-33
0.503319
0.155631
0.0339667
0.005662
0.00135837
5.0059e-05
1.10325e-06
2.64675e-08
4.26721e-12
1.28436e-21
1.18119e-27
3.40857e-22
7.25379e-11
3.58461e-09
2.36645e-12
-2.94449e-12
-5.55944e-16
3.99438e-18
7.0453e-19
6.14912e-19
-1.86404e-24
2.50252e-20
2.49012e-21
2.21992e-23
6.90829e-26
1.04747e-28
2.35208e-30
5.80819e-32
9.74562e-34
1.30824e-35
0.503316
0.155806
0.0341394
0.00574573
0.00140189
5.48351e-05
1.3666e-06
2.44569e-08
3.37279e-10
4.4333e-12
3.70544e-14
1.06885e-16
1.51046e-18
7.1347e-16
5.76843e-18
1.36566e-20
1.91927e-24
-3.15763e-33
1.78775e-28
3.40507e-26
9.85599e-28
4.25549e-30
6.92322e-33
7.70366e-33
1.88766e-34
3.13296e-36
3.87303e-38
0.503316
0.155953
0.0342817
0.00581219
0.00143587
5.84114e-05
1.545e-06
2.97318e-08
4.61835e-10
6.23067e-12
7.43864e-14
7.64917e-16
6.48241e-18
4.4202e-20
2.25158e-22
6.4482e-25
4.83446e-29
2.79076e-40
3.41379e-35
1.32137e-31
1.87989e-32
1.28058e-34
2.19365e-37
1.77979e-35
3.8565e-37
5.63344e-39
5.10635e-41
0.50333
0.156063
0.0343805
0.00585644
0.00145771
6.05635e-05
1.63939e-06
3.19502e-08
4.85471e-10
6.06423e-12
6.3182e-14
5.45249e-16
3.86064e-18
2.19525e-20
9.33332e-23
4.56626e-25
3.65942e-30
2.08122e-45
6.6679e-41
1.83104e-37
1.47359e-37
1.59475e-39
3.60139e-41
3.20509e-38
3.4276e-40
2.89929e-42
2.0145e-44
0.503302
0.156118
0.0344395
0.00588166
0.00146977
6.16227e-05
1.67749e-06
3.24768e-08
4.7902e-10
5.63611e-12
5.42102e-14
4.29605e-16
2.80497e-18
1.49871e-20
6.43855e-23
4.06372e-25
5.03313e-29
5.77897e-36
1.77348e-42
3.47968e-43
-7.92829e-51
8.64383e-47
5.07601e-45
3.98905e-43
1.82365e-44
4.81423e-44
1.17868e-39
2.44162e-41
3.31679e-43
4.03586e-45
0.503316
0.156137
0.0344681
0.00589423
0.00147492
6.20077e-05
1.68406e-06
3.22259e-08
4.62922e-10
5.21865e-12
4.75042e-14
3.55074e-16
2.2007e-18
1.14027e-20
4.99851e-23
1.91561e-25
6.83442e-28
2.52667e-30
9.72695e-33
3.16913e-35
7.82721e-38
1.43607e-40
1.98225e-43
2.08706e-46
1.9494e-49
3.20333e-49
1.26855e-43
8.11489e-45
3.50934e-46
1.39418e-47
0.50331
0.156159
0.0344791
0.00589766
0.00147618
6.20013e-05
1.67506e-06
3.16746e-08
4.45593e-10
4.87354e-12
4.27478e-14
3.0752e-16
1.84445e-18
9.36896e-21
4.11228e-23
1.60808e-25
5.85742e-28
2.06187e-30
6.91677e-33
2.13567e-35
5.97172e-38
1.50698e-40
3.42748e-43
7.03119e-46
1.30754e-48
-1.18745e-49
1.92274e-42
4.01364e-43
4.12167e-44
2.95492e-45
0.503302
0.156159
0.0344812
0.00589735
0.00147526
6.17919e-05
1.65955e-06
3.10479e-08
4.29769e-10
4.60156e-12
3.9389e-14
2.76264e-16
1.62093e-18
8.10476e-21
3.52644e-23
1.36753e-25
4.85104e-28
1.60371e-30
4.93069e-33
1.39083e-35
3.60083e-38
9.61805e-41
5.61348e-43
1.05424e-44
2.49474e-46
-4.31541e-46
3.41509e-39
4.78326e-40
3.58621e-41
2.04482e-42
0.503292
0.156151
0.0344756
0.00589418
0.00147303
6.14854e-05
1.64062e-06
3.04155e-08
4.15903e-10
4.3866e-12
3.6914e-14
2.54856e-16
1.49087e-18
8.26308e-21
7.62273e-23
2.04315e-24
7.97159e-26
3.15619e-27
1.21156e-28
4.4696e-30
1.58536e-31
5.3945e-33
1.76502e-34
5.55436e-36
1.67361e-37
4.82764e-39
1.15454e-35
8.86795e-37
4.49267e-38
1.90263e-39
0.503274
0.156133
0.0344668
0.00588833
0.000821068
9.66296e-05
9.87155e-06
8.93341e-07
7.27231e-08
5.39091e-09
3.67544e-10
2.32408e-11
1.3731e-12
7.63023e-14
4.01366e-15
2.00977e-16
9.62839e-18
4.42733e-19
1.95684e-20
8.31086e-22
3.39087e-23
1.32816e-24
4.99633e-26
1.8053e-27
6.27022e-29
2.09438e-30
6.72986e-32
2.08062e-33
6.19478e-35
1.77537e-36
0.503264
0.156122
0.0344585
0.00588448
0.000819666
9.65548e-05
9.87334e-06
8.93809e-07
7.27413e-08
5.38806e-09
3.6696e-10
2.31782e-11
1.36752e-12
7.58767e-14
3.98202e-15
1.98692e-16
9.46517e-18
4.31765e-19
1.88907e-20
7.93379e-22
3.19892e-23
1.23842e-24
4.60521e-26
1.64535e-27
5.65113e-29
1.86703e-30
5.93635e-32
1.81689e-33
5.35906e-35