/*--------------------------------*- C++ -*----------------------------------*\
  =========                 |
  \\      /  F ield         | OpenFOAM: The Open Source CFD Toolbox
   \\    /   O peration     | Website:  https://openfoam.org
    \\  /    A nd           | Version:  10
     \\/     M anipulation  |
\*---------------------------------------------------------------------------*/
FoamFile
{
    format      ascii;
    class       volScalarField;
    location    "0.5";
    object      T;
}
// * * * * * * * * * * * * * * * * * * * * * * * * * * * * * * * * * * * * * //

dimensions      [0 0 0 1 0 0 0];

internalField   nonuniform List<scalar> 
96305
(
0.0951888
0.00466883
0.000153741
3.80403e-06
7.53905e-08
1.24782e-09
1.77586e-11
2.22022e-13
2.47933e-15
2.50648e-17
2.31948e-19
1.98315e-21
1.57926e-23
1.17973e-25
8.31955e-28
5.56945e-30
3.55574e-32
2.17263e-34
1.27353e-36
7.17106e-39
3.88185e-41
2.02048e-43
1.01128e-45
4.86715e-48
2.25238e-50
1.00248e-52
4.2903e-55
1.76559e-57
6.99855e-60
2.66748e-62
0.0951891
0.00466835
0.00015369
3.80178e-06
7.53337e-08
1.24688e-09
1.77458e-11
2.2184e-13
2.47673e-15
2.50295e-17
2.31505e-19
1.97797e-21
1.57377e-23
1.17447e-25
8.27483e-28
5.53625e-30
3.53437e-32
2.16083e-34
1.26806e-36
7.15111e-39
3.87779e-41
2.02208e-43
1.01399e-45
4.88987e-48
2.26699e-50
1.01043e-52
4.32946e-55
1.78259e-57
7.06566e-60
2.69184e-62
0.0951894
0.0046677
0.000153616
3.79824e-06
7.52496e-08
1.24574e-09
1.77343e-11
2.21729e-13
2.47577e-15
2.50221e-17
2.31405e-19
1.9761e-21
1.57079e-23
1.1708e-25
8.23939e-28
5.50958e-30
3.51945e-32
2.15583e-34
1.26889e-36
7.18065e-39
3.90733e-41
2.04361e-43
1.0272e-45
4.96079e-48
2.30093e-50
1.0248e-52
4.38416e-55
1.80085e-57
7.1148e-60
2.69819e-62
0.0951898
0.00466551
0.000153378
3.78686e-06
7.49679e-08
1.24113e-09
1.76731e-11
2.20932e-13
2.4665e-15
2.49276e-17
2.30528e-19
1.96819e-21
1.56378e-23
1.16523e-25
8.20705e-28
5.50677e-30
3.54417e-32
2.19787e-34
1.31539e-36
7.59423e-39
4.22538e-41
2.26385e-43
1.16789e-45
5.80143e-48
2.7725e-50
1.27389e-52
5.61299e-55
2.36361e-57
9.53605e-60
3.68031e-62
0.0951939
0.00465849
0.000152612
3.7092e-06
1.19225e-07
6.08194e-11
1.88549e-14
6.06309e-18
1.27485e-20
2.58992e-23
-5.03185e-25
-9.58038e-27
-1.11763e-28
-1.07171e-30
-9.20448e-33
-7.36823e-35
-5.61019e-37
-4.04361e-39
-2.7508e-41
-1.77424e-43
-1.0941e-45
-6.48733e-48
2.03216e-49
3.37009e-51
2.5005e-53
1.45067e-55
2.16093e-58
1.39879e-60
7.56592e-63
3.57825e-65
0.0951938
0.00465574
0.000152301
3.69526e-06
1.18799e-07
6.1653e-11
1.95144e-14
4.38657e-18
7.64182e-22
1.07429e-25
1.24655e-29
1.16637e-33
-2.32686e-37
-2.2925e-39
-1.51562e-41
-9.52456e-44
-5.69582e-46
-3.23386e-48
-1.74161e-50
-8.96257e-53
-4.50004e-55
-2.27947e-57
1.08468e-56
1.0244e-57
1.61382e-59
1.36008e-61
6.41385e-62
6.56852e-64
4.51014e-66
2.46185e-68
0.0951933
0.00465351
0.000152024
3.67957e-06
1.1794e-07
6.08822e-11
1.91384e-14
4.26847e-18
7.38865e-22
1.03118e-25
1.18191e-29
1.12016e-33
8.80204e-38
5.77125e-42
3.22546e-46
1.61467e-50
6.74541e-55
-4.54508e-58
-2.28221e-60
-9.59617e-63
-3.77561e-65
-1.9817e-67
3.52691e-65
1.23767e-64
6.0321e-66
9.57349e-68
1.97301e-65
2.54579e-67
1.99794e-69
1.156e-71
0.0951909
0.00465042
0.000151633
3.65654e-06
1.16543e-07
5.92509e-11
1.8252e-14
3.98651e-18
6.772e-22
9.28233e-26
1.03908e-29
9.47285e-34
6.96184e-38
4.06538e-42
1.84885e-46
6.23225e-51
1.73108e-55
7.52121e-60
5.65175e-64
5.97992e-68
2.0939e-71
2.51466e-75
1.56859e-75
5.68653e-75
5.67818e-74
7.0522e-75
5.1334e-69
7.98149e-71
7.0895e-73
4.36122e-75
0.0951886
0.0046457
0.000151026
3.61908e-06
1.14147e-07
5.63098e-11
1.66508e-14
3.48344e-18
5.69623e-22
7.57353e-26
8.19763e-30
6.94272e-34
4.24042e-38
1.61836e-42
2.96222e-47
3.25809e-52
-2.38016e-57
-2.35873e-61
-1.80412e-65
-1.23428e-69
-7.81636e-74
-4.82424e-79
-7.79848e-84
1.49734e-83
1.33333e-80
-2.67402e-80
1.92989e-72
3.09075e-74
2.76288e-76
1.60768e-78
0.0951826
0.00463863
0.000150093
3.55986e-06
1.10221e-07
5.1387e-11
1.40173e-14
2.68166e-18
4.04827e-22
4.84178e-26
4.06421e-30
2.05289e-34
5.40746e-39
6.95308e-44
8.72033e-49
-2.64096e-52
6.35738e-64
-1.18696e-74
-3.8169e-80
-3.08992e-84
-2.22997e-88
1.4394e-88
2.5316e-94
5.01837e-91
6.42114e-87
-6.84591e-84
7.12062e-76
1.06305e-77
9.01714e-80
4.30738e-82
0.0951739
0.00462846
0.000148731
3.47194e-06
1.04226e-07
4.38767e-11
1.02049e-14
1.60413e-18
1.86716e-22
1.61968e-26
1.25707e-30
9.73261e-35
6.96268e-39
3.93402e-43
1.2754e-47
-1.01418e-51
2.03759e-63
-6.61472e-111
4.3252e-99
2.44797e-101
4.14797e-96
7.10824e-91
1.61454e-85
1.11396e-81
4.21293e-83
2.33561e-84
7.59051e-88
0.0951629
0.00461505
0.000146918
3.35298e-06
9.59014e-08
3.38167e-11
5.72346e-15
5.4756e-19
4.33574e-23
8.8624e-27
3.22092e-30
8.09511e-34
1.30407e-37
1.34129e-41
6.51688e-46
-1.57684e-51
5.38805e-63
-1.93837e-121
9.33945e-110
-4.80936e-106
-7.69877e-101
-1.1339e-95
-1.59367e-90
2.31922e-87
8.75111e-89
3.85878e-90
4.76025e-92
0.0951487
0.00459975
0.000144821
3.21412e-06
8.5937e-08
2.2744e-11
1.93532e-15
4.36539e-20
-1.24747e-26
-4.03124e-30
-7.25493e-34
1.47043e-36
1.30623e-40
4.21441e-45
5.63472e-49
-6.61199e-55
1.23028e-65
-9.08213e-126
3.98732e-110
2.63529e-110
-1.6327e-106
-1.80831e-100
-3.65501e-94
2.17879e-87
4.9816e-89
6.70595e-91
7.06905e-93
0.0951373
0.00458576
0.000142898
3.08644e-06
7.65062e-08
1.37587e-11
2.44493e-16
-4.88274e-22
-9.57772e-56
1.20639e-54
6.8388e-54
-5.21656e-59
-3.62919e-69
4.53561e-85
-1.69716e-93
4.63786e-96
-3.28631e-102
2.43923e-100
3.34623e-103
7.58115e-108
-4.43125e-107
-1.55854e-96
3.92584e-88
9.04402e-90
1.18534e-91
1.29035e-93
0.0951279
0.00457723
0.000141736
3.00967e-06
7.04669e-08
9.06527e-12
9.81605e-19
-1.74607e-22
3.55269e-79
7.17855e-62
3.4177e-59
-2.1298e-64
7.37265e-69
6.49604e-73
3.32309e-77
1.1157e-81
2.53799e-86
4.51868e-91
6.35577e-96
6.89042e-101
5.79248e-106
-3.82283e-99
3.2335e-91
1.45005e-92
3.00472e-94
6.46012e-96
0.0951279
0.00457728
0.000141736
3.00954e-06
6.96585e-08
8.23021e-12
7.95577e-19
-1.47045e-22
3.67136e-80
4.41411e-65
3.00752e-62
-2.01153e-67
2.45521e-71
2.27896e-75
1.2456e-79
4.88398e-84
1.52314e-88
3.86799e-93
8.10333e-98
1.37832e-102
1.84607e-107
-4.12646e-99
2.21389e-91
9.35207e-93
1.69086e-94
3.73761e-96
0.0951367
0.00458563
0.000142886
3.08578e-06
7.43694e-08
1.1009e-11
1.6142e-17
-2.55754e-22
-2.17367e-77
1.42048e-59
1.28196e-56
-1.18861e-62
3.11002e-70
-3.80875e-76
-1.04345e-80
1.46419e-84
7.49511e-90
1.52987e-95
1.81433e-99
5.04849e-104
-5.4064e-107
-1.94399e-96
3.30132e-88
7.40194e-90
8.74292e-92
1.01534e-93
0.0951488
0.00459964
0.000144804
3.21308e-06
8.32055e-08
1.81448e-11
8.40953e-16
-8.33717e-22
3.10095e-32
9.46413e-43
-5.8828e-46
2.82568e-49
5.90127e-57
9.95577e-50
1.76293e-51
-3.7037e-57
3.39498e-71
2.55027e-89
-5.18744e-98
4.97086e-99
-7.3555e-106
9.74493e-105
3.41525e-107
6.61311e-110
-7.33314e-106
-1.18879e-95
3.2178e-87
9.40841e-89
1.53402e-90
2.33232e-92
0.0951621
0.00461488
0.000146894
3.35156e-06
9.33455e-08
2.87087e-11
3.6769e-15
2.14522e-19
2.26581e-23
1.31852e-26
3.93247e-30
5.47512e-34
4.18785e-38
2.21532e-42
8.05786e-47
-4.98842e-53
8.46245e-65
-6.55073e-123
-1.98248e-104
-8.31051e-114
1.56477e-107
2.93399e-101
5.3412e-95
1.37087e-87
5.98457e-89
1.32739e-90
2.37633e-92
0.095174
0.00462822
0.000148706
3.47023e-06
1.02224e-07
3.94995e-11
8.01513e-15
1.03513e-18
9.658e-23
9.47098e-27
1.25081e-30
2.59435e-34
4.54837e-38
4.58067e-42
2.08357e-46
-1.97838e-51
6.34489e-63
9.12379e-115
-5.10676e-97
6.32147e-105
1.07491e-105
3.80137e-100
1.58269e-94
2.09581e-88
1.27449e-89
3.38333e-91
1.02129e-92
0.0951814
0.00463821
0.00015005
3.55778e-06
1.08763e-07
4.81317e-11
1.22206e-14
2.15082e-18
2.93833e-22
2.92522e-26
1.92487e-30
8.70934e-35
2.90847e-39
7.32694e-44
1.48371e-48
-3.10045e-52
6.30006e-64
-1.17337e-106
-2.92167e-89
-1.40274e-94
-7.44902e-101
-1.61492e-95
-3.50989e-90
2.03799e-86
-7.89139e-88
5.00031e-88
4.58521e-89
0.0951975
0.00464599
0.000151014
3.61753e-06
1.13136e-07
5.40693e-11
1.53731e-14
3.08206e-18
4.84973e-22
6.21555e-26
6.22389e-30
4.36447e-34
1.82904e-38
3.62201e-43
2.96828e-48
-5.69338e-52
7.76049e-61
-1.81164e-72
-1.13054e-77
-7.3091e-81
-8.76718e-83
-1.96141e-82
-2.04882e-87
5.56945e-94
-4.46165e-90
-1.76583e-84
1.2983e-80
1.78625e-82
2.28699e-82
1.64142e-83
0.0951827
0.00465024
0.000151608
3.65454e-06
1.15849e-07
5.77554e-11
1.73957e-14
3.70986e-18
6.16014e-22
8.25972e-26
9.0227e-30
7.9378e-34
5.45106e-38
2.74661e-42
9.02998e-47
1.71737e-51
4.35922e-56
8.15406e-59
2.29329e-62
2.57459e-66
1.84147e-70
9.51846e-75
3.51732e-79
8.51605e-84
1.31231e-86
-4.32538e-81
8.01789e-75
1.43062e-76
1.47302e-76
1.07118e-77
0.0951933
0.00465288
0.000151982
3.67757e-06
1.17439e-07
5.98536e-11
1.85553e-14
4.07865e-18
6.95518e-22
9.55176e-26
1.0724e-29
9.85271e-34
7.38622e-38
4.51636e-42
2.28651e-46
9.89774e-51
3.70197e-55
1.32117e-59
5.56607e-64
-4.3008e-68
-2.32219e-70
-9.52393e-73
-9.38396e-75
-4.70215e-75
3.205e-76
-2.64876e-75
4.79639e-69
7.68471e-71
1.08249e-71
2.00172e-73
0.0951938
0.00465558
0.000152272
3.69311e-06
1.18441e-07
6.10659e-11
1.91993e-14
4.2799e-18
7.39279e-22
1.02832e-25
1.17577e-29
1.11671e-33
8.87263e-38
5.91952e-42
1.24655e-46
-1.29585e-48
-7.39781e-51
-3.92822e-53
-1.95279e-55
-8.97727e-58
-3.92571e-60
-1.80674e-62
-1.65377e-64
-7.74589e-65
6.8578e-66
3.93829e-67
2.81869e-63
3.7604e-65
3.26845e-67
2.34893e-69
0.0951939
0.00465827
0.000152583
3.70726e-06
1.18832e-07
6.10088e-11
1.91165e-14
4.24809e-18
7.27698e-22
7.85788e-26
-1.97064e-28
-1.78483e-30
-1.39615e-32
-1.03345e-34
-7.16467e-37
-4.72685e-39
-2.96887e-41
-1.75654e-43
-1.01127e-45
-5.55542e-48
-2.96895e-50
-1.57037e-52
-8.13482e-55
-1.37982e-56
7.81858e-58
1.25889e-59
3.73733e-59
3.0178e-61
1.88351e-63
1.02814e-65
0.0951898
0.00466528
0.000153349
3.78495e-06
7.48875e-08
1.23869e-09
1.7615e-11
2.198e-13
2.44785e-15
2.46598e-17
2.27123e-19
1.92942e-21
1.52345e-23
1.12696e-25
7.8707e-28
5.23113e-30
3.33091e-32
2.04155e-34
1.20607e-36
6.86112e-39
3.75333e-41
1.97308e-43
9.96738e-46
4.84321e-48
2.26725e-50
1.02401e-52
4.45622e-55
1.86407e-57
7.5107e-60
2.91077e-62
0.0951894
0.0046675
0.000153586
3.79627e-06
7.51666e-08
1.24321e-09
1.76742e-11
2.20552e-13
2.45635e-15
2.47431e-17
2.27861e-19
1.93579e-21
1.52922e-23
1.13128e-25
7.89172e-28
5.22411e-30
3.29954e-32
1.99555e-34
1.15796e-36
6.45041e-39
3.44881e-41
1.76986e-43
8.72103e-46
4.13046e-48
1.88159e-50
8.2539e-53
3.48939e-55
1.42297e-57
5.60694e-60
2.13299e-62
0.0951892
0.00466815
0.000153663
3.7999e-06
7.52529e-08
1.24439e-09
1.76867e-11
2.20682e-13
2.45763e-15
2.47557e-17
2.28057e-19
1.93858e-21
1.5331e-23
1.13595e-25
7.93773e-28
5.26e-30
3.3221e-32
2.00682e-34
1.16214e-36
6.45959e-39
3.44823e-41
1.76855e-43
8.72079e-46
4.13815e-48
1.89157e-50
8.33501e-53
3.54424e-55
1.45482e-57
5.77376e-60
2.21428e-62
0.0951888
0.00466863
0.000153712
3.80209e-06
7.53085e-08
1.24531e-09
1.76993e-11
2.20866e-13
2.46035e-15
2.47937e-17
2.28527e-19
1.94456e-21
1.53947e-23
1.1422e-25
7.99093e-28
5.30174e-30
3.35071e-32
2.02463e-34
1.17243e-36
6.51611e-39
3.47892e-41
1.78536e-43
8.81333e-46
4.18852e-48
1.9178e-50
8.47034e-53
3.61015e-55
1.48592e-57
5.916e-60
2.27652e-62
0.0952028
0.00476356
0.000163519
4.3114e-06
9.29203e-08
1.70308e-09
2.72821e-11
3.89691e-13
5.04012e-15
5.97527e-17
6.55826e-19
6.71933e-21
6.47172e-23
5.89489e-25
5.10459e-27
4.22066e-29
3.34392e-31
2.54521e-33
1.8643e-35
1.31527e-37
8.94164e-40
5.85742e-42
3.697e-44
2.24805e-46
1.31694e-48
7.43504e-51
4.04556e-53
2.1228e-55
1.07578e-57
5.25941e-60
0.0952024
0.00476401
0.00016358
4.31542e-06
9.30896e-08
1.70817e-09
2.73995e-11
3.91901e-13
5.0758e-15
6.02627e-17
6.62411e-19
6.79755e-21
6.55817e-23
5.98519e-25
5.19466e-27
4.30723e-29
3.42447e-31
2.61751e-33
1.92652e-35
1.36632e-37
9.34014e-40
6.15265e-42
3.90495e-44
2.38724e-46
1.40552e-48
7.97146e-51
4.35638e-53
2.29466e-55
1.16685e-57
5.72205e-60
0.0952014
0.00476499
0.000163716
4.32427e-06
9.34624e-08
1.71935e-09
2.76579e-11
3.96854e-13
5.158e-15
6.14746e-17
6.78496e-19
6.99251e-21
6.77663e-23
6.21492e-25
5.42399e-27
4.52694e-29
3.62749e-31
2.7983e-33
2.08098e-35
1.49227e-37
1.03189e-39
6.87637e-42
4.41491e-44
2.7293e-46
1.62428e-48
9.30297e-51
5.13036e-53
2.72488e-55
1.39598e-57
6.8909e-60
0.0951996
0.00476655
0.000163955
4.34153e-06
9.4195e-08
1.73965e-09
2.80971e-11
4.0473e-13
5.28045e-15
6.31628e-17
6.99477e-19
7.22941e-21
7.02262e-23
6.45301e-25
5.64327e-27
4.72312e-29
3.80093e-31
2.95009e-33
2.21085e-35
1.59933e-37
1.11605e-39
7.5062e-42
4.86316e-44
3.03268e-46
1.81923e-48
1.04909e-50
5.81651e-53
3.10236e-55
1.59479e-57
7.89848e-60
0.0951976
0.00476784
0.000164236
4.36821e-06
1.86478e-07
2.13961e-10
1.53806e-13
7.63349e-17
1.03395e-20
-3.38182e-22
-4.91143e-24
-5.89755e-26
-6.279e-28
-6.13309e-30
-5.60937e-32
-4.89758e-34
-4.14793e-36
-3.39801e-38
-2.67209e-40
-2.00262e-42
-1.43284e-44
-9.77428e-47
-6.34625e-49
-3.95935e-51
1.80425e-52
3.94366e-54
9.80613e-57
8.8513e-59
6.42853e-61
4.03375e-63
0.0951943
0.00476956
0.000164499
4.38641e-06
1.88012e-07
2.1759e-10
1.57693e-13
7.92086e-17
2.94196e-20
8.47136e-24
1.95651e-27
3.71541e-31
5.79123e-35
-3.08809e-39
-8.70752e-41
-6.66266e-43
-4.83915e-45
-3.35861e-47
-2.2309e-49
-1.42115e-51
-8.78971e-54
-5.41596e-56
-3.29331e-58
-1.95091e-60
1.20838e-60
2.23642e-61
1.39798e-60
2.10436e-62
2.03049e-64
1.54081e-66
0.0951918
0.00477094
0.000164684
4.39804e-06
1.88959e-07
2.20165e-10
1.6105e-13
8.18507e-17
3.08425e-20
9.03049e-24
2.12199e-27
4.09257e-31
6.59014e-35
9.00686e-39
1.06712e-42
1.13013e-46
1.11137e-50
1.03245e-54
5.67406e-59
-1.81461e-61
-9.80712e-64
-5.42727e-66
-3.24485e-68
-1.56369e-70
1.44765e-68
1.48755e-68
2.9036e-64
5.77865e-66
6.70827e-68
5.75756e-70
0.0951871
0.00477187
0.000164811
4.40553e-06
1.89528e-07
2.21718e-10
1.6332e-13
8.39504e-17
3.2175e-20
9.63117e-24
2.31856e-27
4.56771e-31
7.44289e-35
1.01316e-38
1.17267e-42
1.19691e-46
1.13918e-50
1.05584e-54
9.28654e-59
7.32535e-63
5.1352e-67
3.26622e-71
1.84984e-75
-1.55319e-77
2.87969e-75
2.69413e-75
1.04411e-67
2.3918e-69
3.0846e-71
2.7812e-73
0.0951813
0.00477222
0.000164855
4.40674e-06
1.89514e-07
2.21699e-10
1.63834e-13
8.5045e-17
3.32307e-20
1.02369e-23
2.54701e-27
5.16002e-31
8.49837e-35
1.12558e-38
1.17985e-42
9.89607e-47
5.00658e-52
-6.00376e-59
-3.86416e-63
2.04608e-66
-3.75307e-72
-3.05864e-75
-2.68122e-80
1.47419e-82
1.6119e-81
-5.03525e-79
5.03741e-71
1.21391e-72
1.63843e-74
1.46161e-76
0.0951717
0.00477157
0.000164758
4.39738e-06
1.88511e-07
2.18845e-10
1.6083e-13
8.37125e-17
3.32937e-20
1.06007e-23
2.73679e-27
5.66744e-31
9.17755e-35
1.11242e-38
9.41861e-43
1.04126e-46
2.39698e-55
6.37453e-70
4.79206e-76
-8.85335e-78
1.08163e-85
1.14838e-84
4.53073e-91
7.77873e-92
2.70602e-88
-1.00428e-82
1.91146e-74
4.89092e-76
6.98793e-78
6.00302e-80
0.0951588
0.00476934
0.000164452
4.37181e-06
1.85934e-07
2.11212e-10
1.51497e-13
7.75957e-17
3.11233e-20
1.03295e-23
2.83629e-27
6.34514e-31
1.1397e-34
1.59969e-38
1.60592e-42
9.16893e-47
2.59448e-53
-2.69567e-100
3.27436e-95
1.94688e-100
4.20044e-95
1.184e-89
4.69109e-84
1.08818e-78
6.59393e-80
1.32387e-81
1.22981e-83
0.0951425
0.00476533
0.00016387
4.32492e-06
1.81221e-07
1.96907e-10
1.33154e-13
6.47072e-17
2.60778e-20
9.63337e-24
3.16935e-27
8.16813e-31
1.53674e-34
2.15277e-38
2.23469e-42
1.38466e-46
4.85666e-53
1.93867e-108
6.40798e-106
-6.43827e-106
-5.01065e-102
8.77589e-95
1.09684e-88
3.08155e-84
1.36507e-85
2.51511e-87
2.47906e-88
0.0951242
0.00475967
0.000163052
4.25892e-06
1.74447e-07
1.75984e-10
1.06029e-13
8.77426e-17
1.31509e-22
3.48596e-28
1.58893e-31
6.74293e-35
2.65739e-39
2.71058e-43
1.4932e-46
4.6086e-50
3.34149e-56
-1.90867e-117
7.37164e-107
4.90212e-104
8.81125e-104
-6.0719e-101
-1.58197e-92
8.39202e-84
2.02888e-85
2.82575e-87
2.83505e-89
0.0951081
0.00475389
0.000162213
4.19083e-06
1.67247e-07
1.53609e-10
7.72664e-14
4.32518e-17
1.5211e-56
1.88804e-53
7.43624e-52
7.99176e-55
1.77605e-62
-3.22938e-78
1.09139e-87
-1.73261e-90
-2.80289e-99
6.74017e-98
4.04008e-101
7.71927e-103
-1.38009e-103
-5.24433e-93
2.29165e-84
5.33124e-86
7.10778e-88
7.19092e-90
0.0950971
0.00475005
0.000161673
4.14737e-06
1.62399e-07
1.38673e-10
6.00161e-14
2.21382e-17
7.8192e-70
6.79653e-60
1.69875e-57
1.2075e-60
9.27342e-66
2.3144e-70
6.96725e-75
1.4093e-79
1.99071e-84
2.45513e-89
2.76066e-94
2.65965e-99
2.01141e-104
-2.81929e-95
6.21809e-87
2.51219e-88
4.94166e-90
8.30978e-92
0.0950978
0.00475012
0.000161673
4.1472e-06
1.61867e-07
1.36129e-10
5.70943e-14
1.92067e-17
6.28706e-72
3.53661e-63
1.05619e-60
1.38832e-63
1.917e-68
8.03225e-73
3.53163e-77
1.26792e-81
3.56317e-86
7.87481e-91
1.39657e-95
1.93595e-100
1.05126e-105
-3.26143e-95
5.76571e-87
2.23086e-88
4.03441e-90
6.44352e-92
0.0951073
0.00475379
0.000162203
4.19014e-06
1.65791e-07
1.46222e-10
6.74728e-14
2.79956e-17
-1.52249e-68
3.01931e-57
8.17788e-55
2.66453e-58
4.09464e-65
6.07477e-74
9.17682e-80
7.11363e-83
5.34447e-88
1.38001e-93
6.13625e-98
1.15557e-102
-2.28026e-103
-7.70696e-93
2.86093e-84
6.61175e-86
8.35395e-88
8.29753e-90
0.0951242
0.00475966
0.000163041
4.25804e-06
1.72629e-07
1.66297e-10
9.19778e-14
6.25037e-17
2.91943e-24
-1.43031e-38
8.83777e-45
1.75574e-44
-6.10496e-59
1.3323e-48
2.5675e-49
4.79815e-53
1.05504e-62
5.29178e-81
1.00868e-92
-5.4554e-94
-2.28004e-103
3.33395e-103
1.57476e-102
9.42831e-103
-1.00394e-102
-3.54502e-92
1.74658e-83
5.19571e-85
8.49978e-87
1.03652e-88
0.0951415
0.00476522
0.000163855
4.32386e-06
1.79623e-07
1.8848e-10
1.21152e-13
5.59872e-17
2.19794e-20
8.26431e-24
2.12384e-27
2.48523e-31
1.26781e-35
5.0642e-40
3.24132e-44
2.6353e-48
7.5716e-55
-2.74484e-112
3.24311e-106
1.16229e-107
-3.92243e-104
-8.95921e-98
-4.21673e-91
6.83417e-84
2.74258e-85
5.54106e-87
7.75926e-89
0.0951584
0.00476927
0.000164436
4.37075e-06
1.84782e-07
2.05376e-10
1.43483e-13
7.18134e-17
2.88204e-20
9.94891e-24
2.95508e-27
7.38952e-31
1.50637e-34
2.43062e-38
2.83147e-42
1.83671e-46
6.23115e-53
3.73304e-105
1.59161e-98
-2.30491e-104
1.71322e-102
8.73415e-97
5.66033e-91
1.27489e-84
6.44122e-86
1.46603e-87
3.53312e-89
0.0951754
0.00477151
0.00016474
4.39641e-06
1.87757e-07
2.15308e-10
1.56409e-13
8.08175e-17
3.22241e-20
1.04055e-23
2.73393e-27
5.73149e-31
9.35976e-35
1.14787e-38
9.78444e-43
9.84981e-47
9.87425e-55
-1.49291e-98
9.87673e-89
1.15849e-93
1.52226e-98
4.69399e-93
1.64176e-87
-1.23404e-83
-1.07387e-83
1.74112e-84
1.55536e-85
0.0951806
0.00477242
0.000164856
4.4059e-06
1.89038e-07
2.1976e-10
1.61731e-13
8.39725e-17
3.30292e-20
1.03076e-23
2.60212e-27
5.31234e-31
8.64215e-35
1.08549e-38
1.00138e-42
1.26592e-46
9.02884e-54
-2.68412e-66
4.24339e-72
-6.01743e-74
6.54328e-83
4.92118e-80
3.39023e-84
8.13555e-91
3.16185e-91
9.23979e-84
-7.4588e-78
-2.03881e-77
-3.06898e-79
4.57361e-80
0.0951824
0.00477161
0.000164805
4.40491e-06
1.89221e-07
2.20711e-10
1.62498e-13
8.37557e-17
3.23162e-20
9.77044e-24
2.37888e-27
4.72402e-31
7.69536e-35
1.02993e-38
1.13968e-42
1.07144e-46
9.3225e-51
8.58243e-55
8.17903e-59
6.78239e-63
4.56742e-67
2.43648e-71
9.81483e-76
2.85638e-80
5.90936e-85
1.21845e-80
-7.19005e-73
-3.84327e-73
-2.5783e-75
3.78966e-76
0.0951916
0.00477071
0.000164663
4.39707e-06
1.88796e-07
2.19708e-10
1.60885e-13
8.20032e-17
3.10584e-20
9.15613e-24
2.16642e-27
4.19654e-31
6.75158e-35
9.14076e-39
1.06312e-42
1.10076e-46
1.06492e-50
9.86583e-55
8.47758e-59
6.46296e-63
4.23703e-67
-1.23622e-71
-2.36974e-73
-1.43534e-75
-7.88742e-78
2.96916e-75
-1.26925e-68
-4.03838e-69
-6.67921e-72
2.65729e-72
0.0951947
0.00476955
0.000164492
4.38575e-06
1.87929e-07
2.17711e-10
1.58167e-13
7.97107e-17
2.97306e-20
8.59935e-24
1.99367e-27
3.79498e-31
6.0422e-35
8.19296e-39
9.64394e-43
9.20971e-47
-5.67171e-50
-4.422e-52
-2.7911e-54
-1.66427e-56
-9.56428e-59
-5.57813e-61
-3.28769e-63
-1.91684e-65
-1.05875e-67
1.18553e-69
-2.92999e-63
-9.92914e-65
2.1506e-67
2.95883e-68
0.0951975
0.00476781
0.000164229
4.36755e-06
1.86558e-07
2.1436e-10
1.54126e-13
7.67607e-17
2.82305e-20
7.9809e-24
1.18037e-27
-6.03973e-30
-5.83784e-32
-5.076e-34
-4.22145e-36
-3.33209e-38
-2.53305e-40
-1.84487e-42
-1.28977e-44
-8.69465e-47
-5.66666e-49
-3.62436e-51
-2.2539e-53
-1.37208e-55
-8.03534e-58
-4.56031e-60
-1.6316e-57
-4.9202e-60
1.80523e-62
4.47405e-64
0.0951995
0.00476652
0.000163949
4.34094e-06
9.41638e-08
1.7385e-09
2.80631e-11
4.03938e-13
5.26451e-15
6.28829e-17
6.95056e-19
7.16756e-21
6.94367e-23
6.35982e-25
5.54118e-27
4.61858e-29
3.70024e-31
2.85843e-33
2.13159e-35
1.53382e-37
1.06439e-39
7.11812e-42
4.58834e-44
2.85156e-46
1.70996e-48
9.89574e-51
5.52977e-53
2.98443e-55
1.55755e-57
7.84841e-60
0.0952014
0.00476494
0.000163707
4.32362e-06
9.34299e-08
1.71818e-09
2.76253e-11
3.96093e-13
5.14299e-15
6.12131e-17
6.74453e-19
6.93665e-21
6.70548e-23
6.13145e-25
5.3327e-27
4.43368e-29
3.53822e-31
2.71743e-33
2.01143e-35
1.43571e-37
9.88121e-40
6.55567e-42
4.19415e-44
2.58777e-46
1.5404e-48
8.85128e-51
4.91123e-53
2.63224e-55
1.3643e-57
6.82758e-60
0.0952023
0.00476398
0.000163574
4.31486e-06
9.30602e-08
1.70708e-09
2.73681e-11
3.91165e-13
5.06129e-15
6.00122e-17
6.58639e-19
6.74445e-21
6.49172e-23
5.90769e-25
5.11158e-27
4.22345e-29
3.34498e-31
2.5465e-33
1.8666e-35
1.31851e-37
8.97761e-40
5.89408e-42
3.73148e-44
2.27882e-46
1.34317e-48
7.64179e-51
4.19931e-53
2.22899e-55
1.14441e-57
5.67725e-60
0.0952028
0.00476353
0.000163513
4.31084e-06
9.28897e-08
1.70196e-09
2.72503e-11
3.88958e-13
5.0257e-15
5.95053e-17
6.5206e-19
6.66816e-21
6.40725e-23
5.82085e-25
5.02492e-27
4.14089e-29
3.26898e-31
2.47881e-33
1.80877e-35
1.27132e-37
8.61363e-40
5.62631e-42
3.54472e-44
2.15457e-46
1.26382e-48
7.15954e-51
3.91694e-53
2.0706e-55
1.05899e-57
5.23491e-60
0.0951813
0.0047337
0.000160412
4.14973e-06
8.73088e-08
1.55606e-09
2.41705e-11
3.3414e-13
4.17801e-15
4.78592e-17
5.07516e-19
5.02575e-21
4.68179e-23
4.12882e-25
3.46583e-27
2.78185e-29
2.14292e-31
1.58858e-33
1.13538e-35
7.83123e-38
5.21633e-40
3.35565e-42
2.08496e-44
1.25126e-46
7.25399e-49
4.06334e-51
2.1995e-53
1.15121e-55
5.83366e-58
2.86118e-60
0.0951814
0.00473376
0.000160423
4.15066e-06
8.7355e-08
1.55762e-09
2.42103e-11
3.34956e-13
4.19198e-15
4.80679e-17
5.10301e-19
5.05953e-21
4.71984e-23
4.16925e-25
3.50689e-27
2.8221e-29
2.18105e-31
1.62331e-33
1.16558e-35
8.08088e-38
5.41143e-40
3.50036e-42
2.18707e-44
1.31962e-46
7.68954e-49
4.32824e-51
2.35359e-53
1.23695e-55
6.29179e-58
3.09655e-60
0.0951814
0.00473392
0.000160448
4.15259e-06
8.74493e-08
1.56084e-09
2.42924e-11
3.36633e-13
4.22102e-15
4.85072e-17
5.16242e-19
5.13257e-21
4.80289e-23
4.25804e-25
3.59761e-27
2.9114e-29
2.26596e-31
1.70096e-33
1.23334e-35
8.64218e-38
5.85165e-40
3.82791e-42
2.41891e-44
1.47568e-46
8.6909e-49
4.94096e-51
2.71263e-53
1.43852e-55
7.37888e-58
3.66032e-60
0.0951816
0.00473407
0.000160475
4.15505e-06
8.75803e-08
1.56487e-09
2.43969e-11
3.38826e-13
4.25948e-15
4.90884e-17
5.24009e-19
5.22564e-21
4.90509e-23
4.36317e-25
3.70129e-27
3.01137e-29
2.36087e-31
1.78889e-33
1.31159e-35
9.30281e-38
6.37883e-40
4.2254e-42
2.70285e-44
1.66842e-46
9.93316e-49
5.70186e-51
3.15674e-53
1.68629e-55
8.70299e-58
4.34101e-60
0.0951818
0.00473411
0.000160482
4.15722e-06
1.72873e-07
1.88684e-10
1.27394e-13
5.88616e-17
1.70978e-21
-3.20372e-22
-4.36697e-24
-5.02606e-26
-5.16496e-28
-4.88112e-30
-4.32274e-32
-3.64926e-34
-2.98057e-36
-2.35525e-38
-1.78894e-40
-1.30081e-42
-9.04232e-45
-6.02565e-47
-3.84796e-49
5.03876e-51
2.69322e-52
2.83301e-54
6.13819e-57
5.34826e-59
3.83117e-61
2.39296e-63
0.0951811
0.00473409
0.000160494
4.15907e-06
1.73175e-07
1.89902e-10
1.29066e-13
6.0723e-17
2.1223e-20
5.78917e-24
1.27733e-27
2.34046e-31
3.54265e-35
-3.19626e-39
-6.14145e-41
-4.56007e-43
-3.22316e-45
-2.17878e-47
-1.41208e-49
-8.81697e-52
-5.3661e-54
-3.23287e-56
-1.9388e-58
1.51862e-59
1.1027e-59
3.1244e-61
1.03758e-60
1.49308e-62
1.41246e-64
1.06185e-66
0.0951807
0.00473386
0.000160479
4.15921e-06
1.73338e-07
1.90802e-10
1.30573e-13
6.2084e-17
2.20192e-20
6.11901e-24
1.3788e-27
2.5817e-31
4.09407e-35
5.59766e-39
6.73874e-43
7.34252e-47
7.48329e-51
7.26973e-55
4.62073e-59
-1.13078e-61
-6.14404e-64
-3.35626e-66
-1.98488e-68
1.57845e-67
7.25506e-67
4.50018e-68
2.52035e-64
4.8841e-66
5.66232e-68
4.91059e-70
0.0951789
0.00473317
0.000160403
4.1556e-06
1.7322e-07
1.91139e-10
1.31645e-13
6.3347e-17
2.29015e-20
6.53294e-24
1.51836e-27
2.93409e-31
4.77991e-35
6.64965e-39
8.04621e-43
8.77059e-47
9.1478e-51
9.64197e-55
1.00904e-58
9.88277e-63
8.82261e-67
7.15967e-71
5.21675e-75
1.2549e-74
1.83742e-73
1.77106e-74
9.62352e-68
2.23971e-69
2.98183e-71
2.82128e-73
0.0951752
0.0047317
0.000160226
4.14541e-06
1.72602e-07
1.90396e-10
1.3172e-13
6.42082e-17
2.37978e-20
7.04989e-24
1.71685e-27
3.48293e-31
5.91825e-35
8.43303e-39
1.01043e-42
1.04036e-46
7.84183e-52
-3.22717e-59
-1.59042e-63
3.59282e-66
3.74657e-71
-4.50893e-75
-1.74189e-81
1.00758e-81
6.56761e-80
-3.65639e-79
4.39259e-71
1.12092e-72
1.62217e-74
1.59505e-76
0.0951698
0.00472904
0.000159896
4.1248e-06
1.71151e-07
1.87665e-10
1.29721e-13
6.39358e-17
2.44414e-20
7.64188e-24
1.99617e-27
4.3607e-31
7.91878e-35
1.17693e-38
1.36936e-42
2.24773e-46
1.14693e-54
9.82701e-70
-1.27395e-76
-2.48371e-77
7.20349e-86
2.03917e-84
-3.49917e-91
3.73433e-91
3.81676e-87
-6.42372e-83
1.51582e-74
4.40741e-76
7.13982e-78
7.38357e-80
0.0951617
0.00472477
0.000159345
4.08918e-06
1.68423e-07
1.81666e-10
1.2388e-13
6.11136e-17
2.41536e-20
8.14197e-24
2.36049e-27
5.83513e-31
1.21306e-34
2.05702e-38
2.57882e-42
1.76869e-46
4.91333e-53
-3.21024e-100
5.35296e-95
6.25076e-101
3.44731e-96
1.73344e-90
1.53177e-84
2.5473e-78
1.06512e-79
2.16169e-81
2.51685e-83
0.0951498
0.00471873
0.000158545
4.03559e-06
1.64064e-07
1.71041e-10
1.11921e-13
5.33759e-17
2.1254e-20
7.96332e-24
2.71212e-27
6.83443e-31
1.13545e-34
1.3156e-38
1.19128e-42
7.21516e-47
2.44093e-53
3.01841e-108
1.85495e-104
6.02848e-101
9.40617e-100
-2.24055e-94
-2.6622e-88
5.84067e-81
1.61215e-82
2.48544e-84
2.59259e-86
0.0951388
0.00471139
0.000157565
3.96761e-06
1.58214e-07
1.55526e-10
9.23392e-14
7.56665e-17
1.10361e-22
3.18147e-28
1.36124e-31
2.63751e-35
5.62998e-40
-5.02456e-46
1.3224e-47
8.66882e-51
4.74968e-57
-7.63602e-110
1.78763e-98
3.69539e-97
2.96028e-97
2.01766e-98
-3.33232e-89
2.1949e-80
5.40904e-82
7.63523e-84
7.53318e-86
0.0951264
0.00470448
0.000156629
3.90139e-06
1.52211e-07
1.38607e-10
6.95715e-14
3.68922e-17
3.69394e-57
1.45444e-56
5.21288e-53
4.20915e-56
7.48655e-64
-1.02507e-80
1.25154e-88
1.18099e-92
-2.34822e-100
4.16782e-94
4.78495e-95
3.08256e-96
5.29119e-98
-1.28175e-89
7.40246e-81
1.73831e-82
2.34145e-84
2.30279e-86
0.0951193
0.00470026
0.000156054
3.86059e-06
1.48266e-07
1.27283e-10
5.58819e-14
2.00915e-17
5.59932e-71
6.45616e-61
1.0693e-58
2.38885e-62
7.44598e-68
1.71631e-72
4.69227e-77
8.35798e-82
1.05447e-86
1.16427e-91
1.17612e-96
1.1416e-101
-4.04863e-102
-1.39461e-91
4.24313e-83
1.65216e-84
3.19006e-86
4.88086e-88
0.0951196
0.00470026
0.000156049
3.86036e-06
1.47834e-07
1.25254e-10
5.34919e-14
1.78175e-17
9.60963e-75
7.39045e-65
5.60323e-62
3.30959e-65
2.69784e-70
1.04312e-74
4.23679e-79
1.37836e-83
3.35047e-88
6.14457e-93
8.86292e-98
1.00265e-102
-5.03737e-102
-1.63712e-91
4.32795e-83
1.62681e-84
2.96211e-86
4.33229e-88
0.0951265
0.0047044
0.000156616
3.90064e-06
1.51032e-07
1.32772e-10
6.14765e-14
2.44064e-17
1.93893e-68
6.84314e-58
1.06715e-55
9.85927e-60
4.43551e-67
6.22582e-76
8.02972e-82
9.50229e-85
1.02864e-89
4.62239e-95
6.12909e-97
6.39626e-98
7.80574e-100
-1.94024e-89
1.08654e-80
2.55576e-82
3.34158e-84
3.18342e-86
0.0951374
0.00471121
0.000157546
3.96642e-06
1.56728e-07
1.47972e-10
8.09486e-14
5.25506e-17
2.02542e-24
2.80287e-38
7.86733e-45
2.13305e-44
-8.05705e-59
-2.53114e-51
3.11733e-50
4.90627e-54
9.28591e-64
2.20638e-82
1.27478e-94
2.00074e-96
-9.59606e-105
2.92386e-95
1.39132e-95
4.45383e-96
1.95647e-97
-6.97207e-89
5.00326e-80
1.44905e-81
2.32133e-83
2.58401e-85
0.0951506
0.00471855
0.000158524
4.03424e-06
1.6273e-07
1.64608e-10
1.03159e-13
4.66214e-17
1.75564e-20
6.43831e-24
1.4079e-27
1.00584e-31
2.1635e-36
4.86024e-41
6.31433e-45
9.39115e-49
1.60521e-55
-1.26724e-107
3.10231e-103
3.39623e-100
4.07147e-99
5.60603e-100
-3.27353e-89
2.03602e-80
7.28782e-82
1.36299e-83
1.69024e-85
0.0951617
0.00472466
0.000159324
4.08785e-06
1.67417e-07
1.7714e-10
1.18409e-13
5.76425e-17
2.29875e-20
8.10865e-24
2.57266e-27
7.13303e-31
1.64429e-34
3.06538e-38
4.28304e-42
3.3359e-46
1.14272e-52
2.72318e-106
1.27807e-99
-1.31206e-105
-2.20861e-100
-2.4793e-94
-5.41862e-88
5.20437e-81
2.12e-82
4.30906e-84
9.16511e-86
0.0951731
0.0047292
0.000159879
4.1236e-06
1.70448e-07
1.84759e-10
1.26633e-13
6.23685e-17
2.41725e-20
7.80605e-24
2.13005e-27
4.87055e-31
9.23536e-35
1.41996e-38
1.64137e-42
2.26025e-46
1.88256e-54
-8.8092e-100
2.9492e-90
-6.1309e-95
2.91746e-97
2.00422e-91
1.80113e-85
8.56151e-80
3.53279e-79
2.11737e-80
5.7012e-82
0.0951714
0.00473161
0.000160214
4.14416e-06
1.7214e-07
1.88566e-10
1.30047e-13
6.35657e-17
2.3843e-20
7.21649e-24
1.80796e-27
3.77701e-31
6.57377e-35
9.45895e-39
1.10483e-42
1.99757e-46
2.72526e-53
1.26082e-66
6.4e-72
-2.78915e-74
1.4243e-84
8.90925e-80
-1.22981e-85
3.94415e-88
1.17008e-92
4.74778e-84
2.54663e-75
3.7142e-75
1.48087e-76
2.85515e-78
0.0951792
0.00473264
0.000160382
4.15462e-06
1.7288e-07
1.89999e-10
1.3072e-13
6.30995e-17
2.30091e-20
6.65551e-24
1.57364e-27
3.0933e-31
5.10243e-35
7.11779e-39
8.49942e-43
8.99759e-47
9.11527e-51
9.90464e-55
1.12481e-58
1.07424e-62
7.73917e-67
4.13474e-71
1.66312e-75
5.13079e-80
1.24924e-84
-4.71827e-80
3.18471e-71
1.65651e-71
5.30348e-73
9.07731e-75
0.0951806
0.00473374
0.000160455
4.15779e-06
1.73088e-07
1.90048e-10
1.30023e-13
6.19757e-17
2.21064e-20
6.19484e-24
1.40936e-27
2.66343e-31
4.24994e-35
5.81524e-39
6.96356e-43
7.53102e-47
7.70339e-51
7.73593e-55
7.50021e-59
6.75876e-63
5.51463e-67
1.69685e-71
-1.48968e-73
-9.18637e-76
-1.75806e-77
-1.33705e-75
2.67043e-67
7.59757e-68
1.88241e-69
2.76461e-71
0.0951815
0.004734
0.000160479
4.15803e-06
1.72994e-07
1.89367e-10
1.28741e-13
6.06753e-17
2.12785e-20
5.83239e-24
1.29396e-27
2.38297e-31
3.71953e-35
5.01206e-39
5.94498e-43
5.72913e-47
-3.78283e-50
-2.86459e-52
-1.7736e-54
-1.05268e-56
-5.95694e-59
-3.41869e-61
-2.00495e-63
-1.15166e-65
-6.38225e-68
-3.86255e-70
3.6766e-63
5.938e-64
1.02919e-65
1.17573e-67
0.0951818
0.00473402