/*--------------------------------*- C++ -*----------------------------------*\
  =========                 |
  \\      /  F ield         | OpenFOAM: The Open Source CFD Toolbox
   \\    /   O peration     | Website:  https://openfoam.org
    \\  /    A nd           | Version:  10
     \\/     M anipulation  |
\*---------------------------------------------------------------------------*/
FoamFile
{
    format      ascii;
    class       volScalarField;
    location    "5";
    object      T;
}
// * * * * * * * * * * * * * * * * * * * * * * * * * * * * * * * * * * * * * //

dimensions      [0 0 0 1 0 0 0];

internalField   nonuniform List<scalar> 
96305
(
0.632208
0.261924
0.078221
0.0180011
0.00334575
0.000519807
6.92524e-05
8.06725e-06
8.34513e-07
7.76419e-08
6.56651e-09
5.09418e-10
3.65373e-11
2.43988e-12
1.52651e-13
8.99759e-15
5.01955e-16
2.65996e-17
1.34224e-18
6.45898e-20
2.96665e-21
1.30098e-22
5.44844e-24
2.17924e-25
8.32715e-27
3.04599e-28
1.06646e-29
3.57339e-31
1.1477e-32
3.52399e-34
0.632233
0.261916
0.0782053
0.0179932
0.00334349
0.000519405
6.91985e-05
8.06025e-06
8.3363e-07
7.75357e-08
6.5546e-09
5.0817e-10
3.64182e-11
2.42968e-12
1.5188e-13
8.94708e-15
4.99109e-16
2.64632e-17
1.3368e-18
6.44214e-20
2.96385e-21
1.30204e-22
5.4628e-24
2.18918e-25
8.38458e-27
3.07436e-28
1.07913e-29
3.62288e-31
1.16506e-32
3.5775e-34
0.632253
0.2619
0.0781881
0.0179873
0.00334212
0.000519276
6.91944e-05
8.05991e-06
8.33563e-07
7.75256e-08
6.55213e-09
5.07675e-10
3.63466e-11
2.42182e-12
1.51209e-13
8.90239e-15
4.96884e-16
2.6394e-17
1.33721e-18
6.46643e-20
2.98542e-21
1.31554e-22
5.53284e-24
2.22074e-25
8.50389e-27
3.1106e-28
1.08869e-29
3.64178e-31
1.16561e-32
3.55464e-34
0.632286
0.261785
0.0780569
0.0179221
0.00332815
0.000515743
6.84971e-05
7.94875e-06
8.19145e-07
7.59426e-08
6.39933e-09
4.94327e-10
3.52752e-11
2.34297e-12
1.45972e-13
8.59788e-15
4.8217e-16
2.58704e-17
1.33052e-18
6.55791e-20
3.09493e-21
1.39744e-22
6.03513e-24
2.49272e-25
9.8383e-27
3.71356e-28
1.33656e-29
4.55894e-31
1.48073e-32
4.57224e-34
0.632539
0.261591
0.0778576
0.0176761
0.00494252
0.000202488
5.13231e-06
9.18639e-08
1.39878e-09
3.04758e-11
1.47718e-12
9.52876e-14
5.98884e-15
3.4993e-16
1.89643e-17
9.53015e-19
4.40942e-20
1.84085e-21
6.56992e-23
1.67972e-24
-2.20096e-27
-4.23261e-27
9.56354e-27
1.22789e-27
7.56425e-29
3.5956e-30
4.83393e-32
2.43188e-33
1.02399e-34
3.78174e-36
0.632576
0.261462
0.0776922
0.0176025
0.00491679
0.000204419
5.32647e-06
9.79677e-08
1.37587e-09
1.53529e-11
1.39644e-13
1.05199e-15
6.65529e-18
3.59592e-20
1.70226e-22
7.39993e-25
3.37257e-27
2.29277e-29
1.09085e-31
-1.9609e-32
-1.92797e-33
-1.24834e-34
4.06976e-32
2.61701e-32
3.50777e-33
2.47702e-34
1.18565e-34
9.33215e-36
4.9705e-37
2.10731e-38
0.632626
0.2614
0.0776005
0.017549
0.00488959
0.000202225
5.23485e-06
9.53909e-08
1.32989e-09
1.47334e-11
1.32403e-13
9.74852e-16
5.92022e-18
2.99908e-20
1.30155e-22
5.10734e-25
1.91438e-27
6.72239e-30
2.10228e-32
5.91777e-35
1.55992e-37
3.89803e-40
9.48602e-39
2.16913e-37
9.03515e-38
1.21857e-38
2.9303e-37
2.91379e-38
1.76773e-39
7.90641e-41
0.632682
0.261308
0.0774544
0.0174592
0.00484098
0.000197523
5.01666e-06
8.95673e-08
1.22532e-09
1.33318e-11
1.17132e-13
8.32356e-16
4.7626e-18
2.17982e-20
7.9181e-23
2.22477e-25
5.43625e-28
2.43745e-30
2.11791e-32
1.47159e-34
1.68101e-36
1.03686e-38
4.12579e-41
1.12753e-43
5.53083e-44
5.93808e-44
6.05845e-40
7.26486e-41
4.97568e-42
2.35703e-43
0.632752
0.261153
0.0772213
0.0173119
0.00475801
0.000189002
4.61833e-06
7.90266e-08
1.03993e-09
1.09641e-11
9.31703e-14
6.1807e-16
2.99113e-18
9.42927e-21
1.6206e-23
2.0336e-26
-7.47337e-30
1.96954e-32
-2.85181e-34
-1.29043e-36
-4.96413e-39
2.40337e-42
1.36055e-44
1.48261e-45
9.64186e-48
1.22846e-48
1.8048e-42
2.22479e-43
1.52815e-44
6.82221e-46
0.632831
0.260911
0.0768582
0.017077
0.00462157
0.000174555
3.95004e-06
6.18216e-08
7.48481e-10
7.09e-12
4.74323e-14
1.97457e-16
4.74636e-19
7.37819e-22
1.14035e-24
-3.76196e-27
1.61913e-31
1.64739e-37
1.11627e-40
3.01321e-45
-3.69366e-50
-1.63896e-52
2.42777e-53
1.96602e-51
2.38375e-52
-3.85286e-52
5.31312e-45
6.06756e-46
3.92907e-47
1.4331e-48
0.632933
0.260556
0.0763256
0.0167262
0.00441197
0.000152044
2.95217e-06
3.7899e-08
3.53011e-10
2.4654e-12
1.6192e-14
1.23853e-16
9.45192e-19
5.02826e-21
1.3682e-23
-1.27122e-26
8.91867e-31
-7.36538e-70
-1.82683e-61
5.42252e-62
1.29708e-59
2.88915e-56
1.03324e-52
6.64564e-50
1.92303e-50
8.00656e-51
3.79307e-53
0.633066
0.26009
0.0756173
0.0162507
0.00411809
0.000120926
1.72658e-06
1.34078e-08
8.88128e-11
3.78098e-12
1.49776e-13
3.03901e-15
3.72782e-17
2.822e-19
9.86377e-22
-1.86911e-26
1.75351e-30
-3.75627e-79
1.00836e-69
-3.87251e-67
-1.18433e-63
-2.89101e-60
-6.11424e-57
8.71916e-54
1.93235e-54
2.89762e-55
7.17857e-56
0.633218
0.25957
0.0748045
0.0156964
0.00376198
8.52029e-05
6.25514e-07
1.10777e-09
5.36831e-12
5.98147e-14
8.69477e-17
5.34398e-17
3.72546e-19
8.84385e-22
8.34027e-24
-9.60521e-29
6.78651e-32
-6.33462e-77
1.88574e-64
2.28382e-63
5.76737e-65
1.08626e-63
4.2418e-59
5.02669e-53
9.18528e-54
9.72923e-55
8.0151e-56
0.63337
0.259106
0.0740642
0.0151865
0.00341925
5.4628e-05
8.79253e-08
8.63202e-11
-2.92724e-31
1.8773e-29
7.04485e-27
-4.03582e-31
5.9596e-35
2.01667e-46
1.06948e-52
1.7442e-53
-4.65779e-59
7.03294e-56
5.27048e-58
6.23963e-61
4.38508e-64
-3.56769e-61
9.03241e-54
1.67348e-54
1.736e-55
1.48041e-56
0.633455
0.258824
0.0736158
0.0148773
0.00319628
3.76796e-05
1.14152e-09
9.43293e-11
9.97334e-44
5.72404e-33
2.46559e-30
3.08443e-33
6.86844e-36
2.51997e-38
7.16179e-41
1.39189e-43
1.86885e-46
1.9599e-49
1.61846e-52
1.02668e-55
4.98491e-59
1.81143e-62
7.97819e-57
2.83748e-57
4.63009e-58
7.71252e-59
0.633455
0.258826
0.0736158
0.0148768
0.00316819
3.45465e-05
1.03596e-09
7.75152e-11
9.17004e-44
5.82006e-35
2.20205e-32
8.46131e-35
1.96632e-37
8.20269e-40
2.49793e-42
5.67999e-45
1.02853e-47
1.5153e-50
1.83798e-53
1.79966e-56
1.38704e-59
7.13592e-63
5.30374e-57
1.77561e-57
2.52049e-58
4.28909e-59
0.633369
0.259101
0.0740596
0.0151839
0.00334464
4.477e-05
6.8782e-09
1.23923e-10
4.72973e-44
9.9122e-32
1.32872e-28
9.25564e-32
6.46506e-36
5.78471e-40
5.52239e-45
1.65297e-45
5.67271e-49
8.22113e-53
2.75599e-55
3.81173e-58
3.0145e-61
-4.40484e-61
7.5485e-54
1.35986e-54
1.27115e-55
1.15467e-56
0.63322
0.259567
0.0747981
0.0156924
0.00366738
6.96459e-05
2.85246e-07
2.39159e-11
4.352e-14
1.49259e-19
5.54748e-24
5.47301e-25
2.2983e-31
2.00439e-25
2.53183e-25
-4.58976e-30
1.31487e-34
8.24736e-50
3.66616e-56
1.36372e-55
-1.7175e-62
9.40373e-63
3.04126e-61
4.24548e-63
7.44501e-66
-2.68936e-60
7.31638e-53
1.70648e-53
2.18718e-54
2.59857e-55
0.633065
0.260084
0.0756078
0.0162451
0.00403086
0.000104418
1.13663e-06
5.32115e-09
1.09923e-10
8.15398e-12
2.06747e-13
2.30776e-15
1.35921e-17
5.55386e-20
1.71269e-22
-1.21718e-27
1.28742e-31
-1.4261e-76
6.26129e-62
6.68594e-67
4.4056e-66
4.98295e-62
9.14123e-58
3.28072e-53
1.12474e-53
1.93686e-54
2.68552e-55
0.632936
0.260547
0.0763154
0.0167195
0.00434525
0.000138472
2.35574e-06
2.481e-08
1.84208e-10
1.61806e-12
2.77696e-14
7.31336e-16
1.08597e-17
8.04089e-20
2.64719e-22
-2.30049e-26
1.98429e-30
-9.63677e-70
3.40304e-56
9.31824e-62
1.6889e-65
9.30194e-62
5.85069e-58
5.27683e-54
2.49315e-54
5.07022e-55
7.77907e-56
0.632829
0.260895
0.0768411
0.0170689
0.00457429
0.000164806
3.48159e-06
5.01149e-08
5.48317e-10
4.36085e-12
2.34424e-14
9.18645e-17
2.99442e-19
8.37055e-22
1.85304e-24
-4.54454e-27
4.23604e-31
9.48922e-63
3.90974e-50
8.59197e-53
-1.91004e-59
-8.31298e-62
-2.71301e-58
4.20131e-55
1.17534e-53
1.03646e-53
4.07714e-54
0.63279
0.261165
0.0772166
0.0173058
0.004726
0.000182475
4.29653e-06
7.05062e-08
8.92256e-10
9.05979e-12
7.14394e-14
3.98524e-16
1.3844e-18
2.59151e-21
2.78312e-24
-7.54683e-27
2.37839e-30
3.63371e-36
4.22971e-39
1.87855e-43
-3.32809e-45
4.95495e-45
2.1642e-47
7.11417e-51
2.50864e-55
-2.03806e-53
1.62102e-50
2.87764e-51
1.60683e-50
8.45734e-51
0.632651
0.261302
0.0774446
0.0174515
0.00481941
0.00019325
4.80632e-06
8.3862e-08
1.12185e-09
1.19451e-11
1.02535e-13
7.05168e-16
3.7956e-18
1.52443e-20
4.19491e-23
7.47525e-26
1.77785e-28
2.47742e-29
4.48147e-31
3.28465e-33
1.51453e-35
4.92887e-38
1.11219e-40
1.64321e-43
1.49997e-46
8.20061e-50
1.21781e-45
1.68543e-46
1.19444e-45
6.60678e-46
0.632629
0.261375
0.0775839
0.0175412
0.00487391
0.000199316
5.09392e-06
9.15562e-08
1.25827e-09
1.3727e-11
1.20991e-13
8.65843e-16
5.04132e-18
2.40267e-20
9.5871e-23
3.33258e-25
1.02792e-27
3.04387e-30
1.01405e-32
3.76586e-35
1.4771e-37
5.28511e-40
1.66232e-42
4.63907e-45
6.41771e-47
-4.67775e-46
9.07703e-41
1.09183e-41
1.10544e-41
1.56181e-42
0.632579
0.261457
0.0776808
0.0175941
0.00490701
0.000202772
5.25144e-06
9.56964e-08
1.33226e-09
1.47208e-11
1.32031e-13
9.7409e-16
5.97524e-18
3.0904e-20
1.38308e-22
5.60831e-25
2.19099e-27
8.42846e-30
3.02925e-32
9.38242e-35
7.01865e-38
-1.05838e-38
-1.03653e-39
3.48123e-39
1.56471e-38
6.30025e-39
6.62268e-36
6.4161e-37
4.18008e-38
2.28047e-39
0.632542
0.261583
0.0778463
0.0176686
0.00492169
0.000202766
5.23977e-06
9.52654e-08
1.32041e-09
1.45276e-11
1.30531e-13
9.86581e-16
7.03099e-18
8.13758e-20
2.47358e-21
1.01651e-22
3.91094e-24
1.24078e-25
2.13469e-27
-9.87662e-29
-1.42571e-29
-1.0846e-30
-6.67758e-32
2.40303e-32
2.348e-32
2.81775e-33
1.07681e-32
6.0484e-34
2.82233e-35
1.17914e-36
0.632289
0.261778
0.0780457
0.0179148
0.00332509
0.000514879
6.83043e-05
7.91347e-06
8.13699e-07
7.5214e-08
6.31388e-09
4.85429e-10
3.44353e-11
2.27132e-12
1.40359e-13
8.19135e-15
4.546e-16
2.41127e-17
1.22443e-18
5.948e-20
2.76047e-21
1.22314e-22
5.1742e-24
2.0914e-25
8.08994e-27
2.99941e-28
1.06458e-29
3.60873e-31
1.17096e-32
3.632e-34
0.632256
0.261893
0.0781766
0.0179797
0.00333899
0.000518357
6.89855e-05
8.02123e-06
8.27581e-07
7.67276e-08
6.45879e-09
4.97981e-10
3.54413e-11
2.34454e-12
1.45153e-13
8.46308e-15
4.67224e-16
2.45144e-17
1.22496e-18
5.83366e-20
2.64766e-21
1.14536e-22
4.72488e-24
1.86076e-25
7.00142e-27
2.5201e-28
8.68546e-30
2.8692e-31
9.10212e-33
2.7709e-34
0.632237
0.261909
0.078195
0.017986
0.00334044
0.0005185
6.8993e-05
8.02222e-06
8.27749e-07
7.67527e-08
6.46381e-09
4.98697e-10
3.55328e-11
2.35435e-12
1.46009e-13
8.522e-15
4.70482e-16
2.46571e-17
1.22962e-18
5.84297e-20
2.64748e-21
1.14448e-22
4.72384e-24
1.86348e-25
7.03382e-27
2.54238e-28
8.81022e-30
2.92824e-31
9.35115e-33
2.87362e-34
0.632211
0.261918
0.0782101
0.0179936
0.00334266
0.000518893
6.90465e-05
8.02929e-06
8.28673e-07
7.68672e-08
6.47647e-09
5.00144e-10
3.56714e-11
2.36655e-12
1.46931e-13
8.58593e-15
4.74324e-16
2.48652e-17
1.24e-18
5.89176e-20
2.67e-21
1.15489e-22
4.77183e-24
1.88521e-25
7.12719e-27
2.58185e-28
8.96641e-30
2.98768e-31
9.57917e-33
2.95751e-34
0.632992
0.266415
0.0822922
0.0199954
0.00400342
0.000682373
0.000101409
1.33796e-05
1.58967e-06
1.72061e-07
1.71277e-08
1.58064e-09
1.3616e-10
1.10132e-11
8.40736e-13
6.08398e-14
4.18824e-15
2.75012e-16
1.72551e-17
1.03552e-18
5.94726e-20
3.26906e-21
1.71981e-22
8.65917e-24
4.17283e-25
1.92529e-26
8.50599e-28
3.60061e-29
1.46265e-30
5.69509e-32
0.632971
0.266418
0.0823099
0.0200086
0.0040091
0.000684056
0.000101782
1.3446e-05
1.5997e-06
1.73388e-07
1.72849e-08
1.5976e-09
1.37849e-10
1.11708e-11
8.54678e-13
6.20184e-14
4.2839e-15
2.82443e-16
1.78044e-17
1.07395e-18
6.20114e-20
3.42712e-21
1.81272e-22
9.17466e-24
4.44289e-25
2.05908e-26
9.13603e-28
3.88192e-29
1.58227e-30
6.1795e-32
0.632924
0.266424
0.0823515
0.0200393
0.0040221
0.000687856
0.000102616
1.35958e-05
1.62275e-06
1.76518e-07
1.76643e-08
1.63927e-09
1.42046e-10
1.15643e-11
8.8942e-13
6.49409e-14
4.5193e-15
3.00587e-16
1.91367e-17
1.16667e-18
6.81177e-20
3.80712e-21
2.0365e-22
1.04206e-23
5.09981e-25
2.3865e-26
1.06839e-27
4.57696e-29
1.87937e-30
7.38803e-32
0.63283
0.266406
0.082407
0.020094
0.00404888
0.000693314
0.000103438
1.37026e-05
1.63559e-06
1.77951e-07
1.78114e-08
1.65274e-09
1.43134e-10
1.1642e-11
8.94648e-13
6.53226e-14
4.55382e-15
3.04108e-16
1.94816e-17
1.19708e-18
7.05135e-20
3.97863e-21
2.14926e-22
1.11067e-23
5.48549e-25
2.58759e-26
1.16599e-27
5.02191e-29
2.07131e-30
8.17757e-32
0.63274
0.266341
0.0824504
0.0201646
0.00694376
0.000567788
3.0834e-05
1.1881e-06
3.42698e-08
7.94821e-10
1.77722e-11
5.8778e-13
3.38524e-14
2.37149e-15
1.65999e-16
1.11942e-17
7.25751e-19
4.53e-20
2.72092e-21
1.57061e-22
8.70323e-24
4.6313e-25
2.36518e-26
1.15806e-27
5.34067e-28
8.25401e-29
1.95163e-30
1.31371e-31
7.30453e-33
3.55285e-34
0.632621
0.266318
0.0825097
0.0202203
0.00698417
0.000574932
3.14332e-05
1.21713e-06
3.49799e-08
7.75589e-10
1.36672e-11
1.95897e-13
2.32831e-15
2.33686e-17
2.01977e-19
1.53738e-21
1.05542e-23
6.69096e-26
4.19083e-28
3.92649e-30
1.03982e-31
4.49743e-33
2.02552e-34
8.84476e-36
2.52513e-34
3.18972e-34
2.28596e-33
2.5751e-34
1.89775e-35
1.1078e-36
0.632527
0.26631
0.0825575
0.0202571
0.0070078
0.00057986
3.19513e-05
1.24998e-06
3.6392e-08
8.19259e-10
1.4669e-11
2.1325e-13
2.55817e-15
2.5726e-17
2.21307e-19
1.6769e-21
1.16121e-23
7.51662e-26
4.47996e-28
2.38455e-30
1.11649e-32
4.59166e-35
1.65954e-37
5.28992e-40
1.99707e-40
1.37031e-39
3.79101e-36
5.69522e-37
5.04298e-38
3.31392e-39
0.632422
0.26628
0.0825786
0.0202761
0.00701938
0.000582493
3.22784e-05
1.27491e-06
3.76688e-08
8.64823e-10
1.58282e-11
2.34657e-13
2.84647e-15
2.85164e-17
2.39735e-19
1.74802e-21
1.16554e-23
7.45885e-26
4.49978e-28
2.42501e-30
1.15538e-32
4.95846e-35
1.92574e-37
6.67264e-40
2.01353e-42
3.0178e-44
1.08153e-38
1.87614e-39
1.84184e-40
1.26664e-41
0.632297
0.266213
0.0825604
0.0202689
0.00701254
0.000581501
3.22849e-05
1.2846e-06
3.85577e-08
9.07199e-10
1.70928e-11
2.59809e-13
3.17993e-15
3.09931e-17
2.36524e-19
1.42711e-21
3.53057e-24
7.74087e-28
3.91074e-30
2.45751e-32
4.41862e-36
1.99949e-39
1.1593e-41
1.39196e-42
1.05714e-44
3.88109e-47
4.15554e-41
7.56484e-42
7.73593e-43
5.23987e-44
0.632144
0.266088
0.0824771
0.0202171
0.00697424
0.000573998
3.16547e-05
1.25852e-06
3.82207e-08
9.22553e-10
1.7899e-11
2.76275e-13
3.31287e-15
2.96338e-17
1.8561e-19
1.45884e-21
9.08928e-26
5.61789e-35
7.90576e-40
6.96486e-41
-4.22309e-47
-3.74605e-49
2.01147e-50
4.61185e-50
8.35902e-50
-3.69194e-51
1.26421e-43
2.42465e-44
2.60503e-45
1.68948e-46
0.631966
0.265882
0.0823021
0.0200984
0.00688665
0.000555591
2.98839e-05
1.16313e-06
3.52586e-08
8.76107e-10
1.79162e-11
2.97634e-13
3.95156e-15
4.07648e-17
3.01177e-19
1.29447e-21
2.28294e-25
3.76772e-62
-4.83534e-58
2.85417e-59
3.02549e-58
1.05689e-54
6.55983e-51
5.75118e-47
2.59403e-47
3.88614e-48
2.7066e-49
0.631782
0.265599
0.0820148
0.0198948
0.00673327
0.000521974
2.64933e-05
9.72189e-07
2.92473e-08
8.00255e-10
1.93355e-11
3.67385e-13
5.1524e-15
5.39303e-17
4.17877e-19
1.952e-21
4.25007e-25
-6.19955e-69
1.22323e-66
8.75776e-63
3.82795e-62
1.1461e-58
9.78282e-55
5.11221e-51
1.23616e-51
1.51034e-52
4.99768e-53
0.63162
0.265268
0.0816423
0.0196197
0.00651808
0.000473259
2.15402e-05
1.19053e-06
6.54321e-09
2.13374e-11
1.05528e-14
1.8458e-16
5.44068e-19
8.10634e-21
4.95703e-22
1.71355e-23
9.09076e-27
-4.77564e-70
6.21481e-62
5.60095e-59
1.27619e-59
2.46013e-61
-4.60802e-58
2.49042e-50
4.83064e-51
5.31618e-52
4.18306e-53
0.631502
0.264965
0.0812772
0.0193419
0.00629151
0.000421216
1.63818e-05
6.69808e-07
2.56032e-33
4.30404e-29
1.71891e-25
1.68106e-26
6.73988e-30
-1.71294e-41
2.62196e-48
2.76174e-50
-4.32653e-57
3.08818e-54
1.66966e-56
2.50697e-59
3.41438e-62
-1.50761e-58
6.80702e-51
1.27678e-51
1.35099e-52
1.07419e-53
0.631437
0.264773
0.0810447
0.0191642
0.00613838
0.000385984
1.3218e-05
3.85958e-07
4.57828e-38
8.97109e-32
2.85243e-29
2.03521e-30
1.46814e-33
2.25734e-36
4.06999e-39
4.96769e-42
4.23403e-45
3.13579e-48
2.10491e-51
1.20435e-54
5.59459e-58
-3.67003e-61
1.97043e-53
6.35441e-54
9.88224e-55
1.29507e-55
0.63144
0.264776
0.0810445
0.0191635
0.00612217
0.000379849
1.26612e-05
3.42859e-07
6.13511e-39
8.444e-34
2.24189e-31
2.72219e-32
3.24077e-35
8.5375e-38
2.27919e-40
5.03048e-43
8.71031e-46
1.18663e-48
1.29541e-51
1.10353e-54
7.04238e-58
-1.02873e-60
1.76691e-53
5.45708e-54
7.77517e-55
9.62654e-56
0.631501
0.264961
0.081273
0.0193393
0.00624795
0.000403867
1.45994e-05
4.67138e-07
4.18765e-37
6.37873e-30
2.2298e-27
7.3667e-29
1.7525e-32
2.9934e-37
2.07694e-41
2.07707e-44
1.07905e-47
2.23504e-51
3.76679e-54
3.64106e-57
2.18471e-60
-2.21496e-58
8.45389e-51
1.57321e-51
1.57646e-52
1.22903e-53
0.631618
0.265268
0.0816377
0.0196163
0.0064636
0.00045062
1.89941e-05
8.92462e-07
6.94842e-10
2.70035e-19
6.34008e-25
5.73004e-23
2.34539e-33
5.09595e-25
9.32896e-24
1.72491e-25
1.24889e-29
4.74195e-44
6.78654e-52
1.41315e-53
-1.33566e-60
1.45351e-59
3.053e-58
1.69249e-59
2.04326e-61
-1.00036e-57
5.11027e-50
1.21729e-50
1.57215e-51
1.50406e-52
0.631777
0.265594
0.0820084
0.0198906
0.00668558
0.000502245
2.4271e-05
8.49988e-07
2.37241e-08
6.21553e-10
1.1984e-11
1.12507e-13
4.68025e-16
1.82093e-18
1.76529e-20
1.47892e-22
3.32021e-26
-8.36442e-67
1.65439e-62
6.75644e-62
2.13111e-61
5.1706e-61
4.08595e-56
2.09122e-50
6.63097e-51
1.04607e-51
1.14021e-52
0.631963
0.265877
0.0822952
0.0200942
0.00685299
0.000542068
2.84048e-05
1.07683e-06
3.24476e-08
8.36259e-10
1.85282e-11
3.44037e-13
5.17758e-15
6.1324e-17
5.21804e-19
2.52232e-21
5.26591e-25
-1.80885e-61
8.26874e-57
1.32608e-60
3.1531e-63
2.49561e-59
2.47261e-55
4.0418e-51
1.60505e-51
2.82599e-52
3.50876e-53
0.632156
0.266084
0.0824693
0.0202131
0.00695293
0.000565937
3.08476e-05
1.21506e-06
3.68411e-08
8.96695e-10
1.76121e-11
2.74388e-13
3.3157e-15
3.00123e-17
1.89505e-19
1.37139e-21
4.70707e-26
5.13389e-56
4.90273e-49
1.20313e-51
-4.74656e-58
-1.30802e-58
-8.07688e-55
7.70223e-52
2.50274e-50
1.40661e-50
3.70589e-51
0.632292
0.266219
0.0825598
0.0202653
0.00699959
0.000577168
3.19083e-05
1.2684e-06
3.82398e-08
9.08911e-10
1.73267e-11
2.64743e-13
3.19608e-15
2.95792e-17
2.00182e-19
1.75571e-21
4.21782e-25
2.92504e-31
3.23312e-37
2.26578e-37
-8.75849e-44
3.92143e-42
3.61972e-44
8.62668e-49
6.9703e-52
-1.16497e-52
1.5691e-48
5.37703e-47
9.76618e-47
3.93212e-47
0.6324
0.266268
0.0825751
0.0202733
0.00701132
0.000580291
3.21349e-05
1.27182e-06
3.77849e-08
8.74942e-10
1.61738e-11
2.4149e-13
2.92786e-15
2.88539e-17
2.32144e-19
1.56078e-21
9.47946e-24
5.94689e-26
3.864e-28
2.19553e-30
1.01213e-32
3.68551e-35
1.01177e-37
2.00507e-40
2.8149e-43
2.93912e-46
-7.4449e-47
1.30694e-43
1.28514e-43
3.92901e-44
0.632523
0.266298
0.0825483
0.020253
0.00700327
0.000578853
3.1923e-05
1.25199e-06
3.66154e-08
8.29365e-10
1.49438e-11
2.18132e-13
2.61473e-15
2.60633e-17
2.20262e-19
1.63164e-21
1.10892e-23
7.09614e-26
4.1682e-28
2.16088e-30
9.75442e-33
3.84647e-35
1.33395e-37
4.11331e-40
1.14543e-42
2.89685e-45
-1.76643e-42
1.82256e-40
1.24261e-40
3.08596e-41
0.63262
0.266316
0.0825056
0.0202173
0.00698166
0.000575102
3.15063e-05
1.22358e-06
3.5301e-08
7.85978e-10
1.39002e-11
1.99618e-13
2.36925e-15
2.36488e-17
2.02485e-19
1.52607e-21
1.04251e-23
6.5931e-26
3.84395e-28
2.02706e-30
9.52532e-33
3.97399e-35
1.58408e-37
1.09742e-39
2.68132e-41
1.46773e-42
-5.2837e-38
6.02066e-37
2.25921e-37
3.67481e-38
0.632736
0.266338
0.0824467
0.0201617
0.00694536
0.000568252
3.08549e-05
1.1857e-06
3.37778e-08
7.41553e-10
1.29329e-11
1.83467e-13
2.16396e-15
2.18633e-17
2.09803e-19
2.9993e-21
1.06312e-22
5.69205e-24
3.1628e-25
1.70307e-26
8.80246e-28
4.36447e-29
2.07538e-30
9.48873e-32
4.16895e-33
1.75451e-34
-2.54566e-33
4.59688e-33
6.45317e-34
5.55036e-35
0.632827
0.266402
0.0824033
0.0200913
0.00404759
0.000692912
0.000103333
1.36802e-05
1.6314e-06
1.77267e-07
1.7712e-08
1.64005e-09
1.4167e-10
1.14871e-11
8.7958e-13
6.39624e-14
4.43924e-15
2.95054e-16
1.88071e-17
1.14936e-18
6.73112e-20
3.77493e-21
2.02766e-22
1.04341e-23
5.14778e-25
2.43548e-26
1.10557e-27
4.81589e-29
2.01553e-30
8.09176e-32
0.632922
0.266419
0.0823468
0.0200365
0.00402081
0.000687426
0.000102504
1.35715e-05
1.61834e-06
1.75812e-07
1.7565e-08
1.62685e-09
1.40626e-10
1.14159e-11
8.75079e-13
6.36553e-14
4.41211e-15
2.92191e-16
1.85169e-17
1.1237e-18
6.53027e-20
3.63365e-21
1.93673e-22
9.88961e-24
4.84017e-25
2.27179e-26
1.02296e-27
4.42056e-29
1.83562e-30
7.31247e-32
0.632968
0.266414
0.0823064
0.0200061
0.00400791
0.000683652
0.000101674
1.34226e-05
1.59543e-06
1.72711e-07
1.7192e-08
1.58578e-09
1.36521e-10
1.10329e-11
8.41598e-13
6.08608e-14
4.18822e-15
2.75051e-16
1.72688e-17
1.03751e-18
5.96726e-20
3.28685e-21
1.73411e-22
8.76692e-24
4.24948e-25
1.97525e-26
8.8104e-28
3.77136e-29
1.55153e-30
6.12767e-32
0.632989
0.26641
0.0822887
0.0199929
0.0040022
0.000681959
0.0001013
1.33562e-05
1.58542e-06
1.71393e-07
1.70351e-08
1.56925e-09
1.34872e-10
1.08813e-11
8.28188e-13
5.97371e-14
4.09796e-15
2.68091e-16
1.67581e-17
1.00197e-18
5.73518e-20
3.14334e-21
1.65055e-22
8.30604e-24
4.00713e-25
1.85478e-26
8.23727e-28
3.51184e-29
1.43928e-30
5.66441e-32
0.631793
0.264513
0.0808526
0.0193338
0.00379097
0.000630284
9.10909e-05
1.16632e-05
1.34302e-06
1.40777e-07
1.35678e-08
1.21249e-09
1.01195e-10
7.93671e-12
5.88118e-13
4.13615e-14
2.77104e-15
1.77341e-16
1.08624e-17
6.3749e-19
3.58743e-20
1.93613e-21
1.00233e-22
4.97816e-24
2.37245e-25
1.08525e-26
4.76597e-28
2.01063e-29
8.1597e-31
3.18438e-32
0.631799
0.264521
0.0808599
0.0193384
0.00379293
0.00063088
9.12309e-05
1.16898e-05
1.34723e-06
1.41356e-07
1.36385e-08
1.22028e-09
1.01985e-10
8.01177e-12
5.94872e-13
4.1943e-14
2.81901e-15
1.81114e-16
1.11435e-17
6.57254e-19
3.71785e-20
2.01725e-21
1.04999e-22
5.24209e-24
2.51066e-25
1.15388e-26
5.08992e-28
2.15596e-29
8.78188e-31
3.43887e-32
0.631806
0.264537
0.0808746
0.0193478
0.00379689
0.000632104
9.15194e-05
1.17444e-05
1.35596e-06
1.42568e-07
1.3788e-08
1.23692e-09
1.03687e-10
8.17411e-12
6.09558e-13
4.32129e-14
2.92421e-15
1.89432e-16
1.17665e-17
7.01223e-19
4.00955e-20
2.19953e-21
1.15758e-22
5.84185e-24
2.82718e-25
1.3121e-26
5.84229e-28
2.49651e-29
1.02533e-30
4.04624e-32
0.631824
0.264562
0.0808963
0.0193607
0.00380402
0.00063234
9.13562e-05
1.17032e-05
1.34983e-06
1.41872e-07
1.37225e-08
1.23151e-09
1.03291e-10
8.15005e-12
6.08747e-13
4.32874e-14
2.94461e-15
1.92236e-16
1.20607e-17
7.27121e-19
4.21004e-20
2.33955e-21
1.24736e-22
6.37522e-24
3.12161e-25
1.46401e-26
6.57923e-28
2.83444e-29
1.17227e-30
4.65555e-32
0.631855
0.264602
0.0809251
0.0193845
0.00652958
0.000512843
2.64168e-05
9.59661e-07
2.61526e-08
5.78983e-10
1.27634e-11
4.35533e-13
2.54062e-14
1.7536e-15
1.20236e-16
7.94409e-18
5.05067e-19
3.0946e-20
1.82687e-21
1.03783e-22
5.67051e-24
2.97854e-25
1.50495e-26
2.95602e-27
7.32584e-28
6.30346e-29
1.26058e-30
8.24739e-32
4.52434e-33
2.18889e-34
0.631874
0.264623
0.0809409
0.0193954
0.0065409
0.000515602
2.66965e-05
9.74696e-07
2.64862e-08
5.58332e-10
9.42621e-12
1.30679e-13
1.51887e-15
1.50847e-17
1.30533e-19
1.00502e-21
7.03143e-24
4.56653e-26
2.94086e-28
2.79408e-30
7.25264e-32
3.09227e-33
1.38307e-34
7.10095e-34
2.09101e-33
4.95791e-34
1.74846e-33
1.89252e-34
1.36924e-35
7.9199e-37
0.631891
0.264631
0.0809432
0.0193988
0.00654711
0.000517766
2.69727e-05
9.94292e-07
2.73891e-08
5.87573e-10
1.01216e-11
1.43244e-13
1.69635e-15
1.71057e-17
1.49894e-19
1.17194e-21
8.4371e-24
5.72483e-26
3.63611e-28
2.11178e-30
1.11102e-32
5.30399e-35
2.3001e-37
1.3922e-39
8.92358e-39
4.74758e-39
3.37497e-36
4.96135e-37
4.39527e-38
2.92028e-39
0.631905
0.264622
0.0809209
0.0193874
0.00654458
0.000518681
2.71758e-05
1.01276e-06
2.83954e-08
6.24267e-10
1.10745e-11
1.61577e-13
1.96526e-15
2.01809e-17
1.7806e-19
1.39472e-21
1.02522e-23
7.44928e-26
5.28654e-28
3.47302e-30
2.06244e-32
1.10559e-34
5.34152e-37
2.30934e-39
8.98436e-42
1.56788e-43
1.01853e-38
1.80215e-39
1.82926e-40
1.32064e-41
0.631918
0.264582
0.0808587
0.0193506
0.00652721
0.000517265
2.72118e-05
1.02602e-06
2.94279e-08
6.69931e-10
1.2416e-11
1.89724e-13
2.40398e-15
2.52994e-17
2.21647e-19
1.64645e-21
5.80871e-24
1.43695e-27
7.61559e-30
4.51034e-32
8.01053e-36
3.61347e-39
1.98984e-41
1.37435e-42
1.23588e-44
5.56805e-47
3.70505e-41
7.16111e-42
7.85773e-43
5.86414e-44
0.631934
0.264497
0.0807363
0.0192736
0.0064851
0.000511534
2.68941e-05
1.02386e-06
3.01836e-08
7.21477e-10
1.42611e-11
2.33455e-13
3.14875e-15
3.44888e-17
2.94157e-19
3.32252e-21
4.04681e-25
3.05469e-34
3.47271e-40
2.86144e-40
-4.98836e-47
8.96665e-49
3.35588e-50
1.16426e-50
3.14671e-50
-2.15748e-51
1.02539e-43
2.23898e-44
2.72777e-45
2.12654e-46
0.631955
0.264353
0.0805284
0.0191387
0.00640508
0.000498624
2.59054e-05
9.85755e-07
2.98603e-08
7.61279e-10
1.64986e-11
3.0191e-13
4.60388e-15
5.6847e-17
5.1935e-19
2.64135e-21
4.50798e-25
-1.80887e-61
1.75512e-57
4.79428e-59
5.08819e-59
2.36616e-55
3.23864e-51
1.38128e-46
4.29729e-47
6.49575e-48
5.65761e-49
0.631982
0.264148
0.0802266
0.0189351
0.00627656
0.000475375
2.38144e-05
8.75128e-07
2.62158e-08
7.14442e-10
1.74043e-11
3.18389e-13
3.94172e-15
3.45755e-17
2.46332e-19
1.24285e-21
3.2224e-25
7.91263e-68
2.38087e-61
2.42783e-57
4.05413e-57
1.01251e-57
2.01307e-53
2.29412e-48
5.05548e-49
6.08938e-50
4.90833e-51
0.632032
0.263904
0.0798616
0.0186786
0.00610392
0.000440898
2.0286e-05
1.13505e-06
5.93079e-09
1.67117e-11
4.77538e-15
5.56536e-17
4.75735e-20
3.25658e-22
1.39561e-22
8.44939e-24
3.60287e-27
-2.45545e-65
1.72116e-55
8.56317e-54
9.88115e-55
1.50688e-56
-1.2106e-55
8.33999e-48
1.65443e-48
1.85175e-49
1.43717e-50
0.632076
0.263681
0.0795168
0.0184299
0.00592644
0.00040278
1.6093e-05
6.28235e-07
9.89656e-35
7.23504e-29
4.13231e-26
3.49652e-27
2.35662e-30
-8.26862e-43
6.94867e-48
6.59869e-51
-4.5094e-57
2.60743e-51
4.66785e-53
2.89237e-55
1.05606e-57
-4.65158e-56
2.82526e-48
5.36015e-49
5.74309e-50
4.45088e-51
0.632104
0.263544
0.0793039
0.0182752
0.00580889
0.000376638
1.3447e-05
3.80187e-07
9.06016e-39
2.45247e-32
6.38778e-30
2.33871e-31
2.03138e-34
2.91712e-37
4.54917e-40
4.67195e-43
3.41791e-46
2.19312e-49
1.28803e-52
6.58969e-56
2.82517e-59
-4.21499e-58
1.72677e-50
5.38307e-51
8.24167e-52
9.86857e-53
0.632106
0.263544
0.0793019
0.0182743
0.0057967
0.000371821
1.29636e-05
3.43764e-07
7.88981e-41
4.78632e-35
2.54574e-32
2.1762e-33
3.98941e-36
9.65315e-39
2.19296e-41
4.03088e-44
5.58103e-47
5.86481e-50
4.86522e-53
3.17561e-56
1.61184e-59
-8.19547e-58
1.69843e-50
5.11337e-51
7.35403e-52
8.37365e-53
0.632076
0.263678
0.0795116
0.018427
0.00589364
0.0003893
1.45348e-05
4.45568e-07
3.72948e-37
3.1254e-30
6.18746e-28
9.01865e-30
4.49675e-33
6.08215e-38
2.8854e-42
2.26648e-45
1.43537e-48
3.9317e-52
7.05952e-55
2.17443e-57
5.77624e-60
-6.99703e-56
4.12568e-48
7.83177e-49
8.13905e-50
6.10245e-51
0.632028
0.263898
0.0798543
0.0186741
0.00606276
0.000423772
1.81828e-05
8.26944e-07
5.35165e-10
1.03702e-18
2.17645e-25
5.59055e-23
5.45154e-36
2.35179e-26
2.43248e-24
3.99007e-26
4.81282e-30
1.333e-44
2.12524e-52
8.38723e-55
-2.29566e-61
5.32968e-53
5.54947e-53
1.79164e-54
1.83131e-56
-2.42914e-55
1.87519e-47
4.36513e-48
5.5421e-49
4.85663e-50
0.631986
0.264141
0.0802187
0.01893
0.00624018
0.000460972
2.22267e-05
7.77624e-07
2.0584e-08
5.13825e-10
8.45519e-12
4.9766e-14
8.99954e-17
2.75159e-19
6.72154e-21
8.13333e-23
1.38836e-26
-1.92878e-64
1.23296e-60
2.4076e-56
3.49367e-56
1.84178e-57
-1.22125e-55
7.89802e-48
2.24962e-48
3.30769e-49
3.21033e-50
0.631956
0.264349
0.0805202
0.0191336
0.00637872
0.000488764
2.49508e-05
9.36684e-07
2.84708e-08
7.51835e-10
1.75796e-11
3.54413e-13
5.90644e-15
7.96196e-17
8.04307e-19
4.60056e-21
9.63077e-25
-1.26808e-64
6.79991e-60
2.98861e-61
3.0873e-60
9.309e-59
3.22681e-54
2.07264e-48
6.68864e-49
1.06187e-49
1.17492e-50
0.63195
0.264504
0.0807297
0.019269
0.00646759
0.000505414
2.63799e-05
1.0034e-06
2.99279e-08
7.3591e-10
1.51265e-11
2.58094e-13
3.62019e-15
4.08555e-17
3.45922e-19
3.33324e-21
1.04336e-25
-2.83515e-59
1.53823e-52
1.67319e-52
1.47895e-54
-1.40327e-56
-5.80728e-52
5.63297e-47
4.81559e-47
1.50755e-47
2.63982e-48
0.631904
0.264579
0.0808541
0.0193458
0.00651632
0.000513554
2.69495e-05
1.0188e-06
2.9542e-08
6.85936e-10
1.30521e-11
2.05031e-13
2.65822e-15
2.82492e-17
2.41765e-19
2.98372e-21
1.30019e-24
1.2282e-30
6.51059e-37
1.94763e-37
-1.31249e-44
3.49326e-44
5.59877e-45
2.03412e-46
3.4475e-49
-5.65528e-51
1.25311e-43
5.71695e-44
1.23569e-44
1.58894e-45
0.631908
0.264601
0.0809129
0.0193837
0.00653689
0.000516466
2.70415e-05
1.01089e-06
2.85743e-08
6.3651e-10
1.14785e-11
1.70277e-13
2.09737e-15
2.16193e-17
1.88637e-19
1.43784e-21
1.01341e-23
7.29609e-26
5.47597e-28
3.50061e-30
1.70588e-32
6.19848e-35
1.69976e-37
3.56157e-40
5.92827e-43
8.48013e-46
8.27078e-41
3.02852e-41
5.39294e-42
6.2096e-43
0.631893
0.264628
0.0809339
0.0193934
0.00654151
0.000516347
2.68989e-05
9.94044e-07
2.75335e-08
5.95479e-10
1.03552e-11
1.47924e-13
1.76357e-15
1.78159e-17
1.55519e-19
1.20846e-21
8.72988e-24
6.07749e-26
4.02348e-28
2.44908e-30
1.34912e-32
6.70286e-35
2.99966e-37
1.21014e-39
4.42294e-42
9.86432e-45
5.50153e-38
1.57214e-38
2.24552e-39
2.25102e-40
0.631876
0.264621
0.0809354
0.0193914
0.00653725
0.000514668
2.66591e-05
9.75032e-07
2.65844e-08
5.63097e-10
9.5595e-12
1.3317e-13
1.55311e-15
1.54398e-17
1.33533e-19
1.02848e-21
7.23615e-24
4.73675e-26
2.87916e-28
1.60244e-30
8.09205e-33
3.71546e-35
1.63962e-37
1.05207e-39
2.11248e-41
-1.15931e-41
6.92327e-35
1.32238e-35
1.37956e-36
1.10079e-37
0.631857
0.2646
0.0809193
0.0193804
0.00652749
0.000512217
2.63667e-05
9.55845e-07
2.57519e-08
5.37448e-10
8.97058e-12
1.22888e-13
1.41411e-15
1.41232e-17
1.37107e-19
2.06321e-21
7.53187e-23
4.00025e-24
2.19476e-25
1.1676e-26
5.97733e-28
2.94013e-29
1.39283e-30
6.35557e-32
2.79211e-33
1.17978e-34
1.65659e-31
1.72141e-32
1.21538e-33
7.21684e-35
0.631826
0.264558
0.0808904
0.0193567
0.00380226
0.000631819
9.12317e-05
1.16786e-05
1.34558e-06
1.41229e-07
1.36356e-08
1.22103e-09
1.02152e-10
8.03642e-12
5.98315e-13
4.23907e-14
2.87273e-15
1.86809e-16
1.16747e-17
7.00974e-19
4.04264e-20
2.23785e-21
1.18953e-22
6.07197e-24
2.97866e-25
1.40491e-26
6.37282e-28
2.78052e-29
1.16801e-30
4.72126e-32
0.631808
0.264534
0.0808686
0.0193436
0.00379509
0.000631543
9.13821e-05
1.17171e-05
1.35132e-06
1.41878e-07
1.36972e-08
1.2263e-09
1.02539e-10
8.06125e-12
5.99258e-13
4.23415e-14
2.85521e-15
1.84299e-16
1.14062e-17
6.77401e-19
3.86108e-20
2.11244e-21
1.10983e-22
5.6006e-24
2.7162e-25
1.26679e-26
5.68434e-28
2.45456e-29
1.02118e-30
4.09021e-32
0.6318
0.264518
0.0808544