/*--------------------------------*- C++ -*----------------------------------*\
  =========                 |
  \\      /  F ield         | OpenFOAM: The Open Source CFD Toolbox
   \\    /   O peration     | Website:  https://openfoam.org
    \\  /    A nd           | Version:  10
     \\/     M anipulation  |
\*---------------------------------------------------------------------------*/
FoamFile
{
    format      ascii;
    class       volScalarField;
    location    "2.5";
    object      T;
}
// * * * * * * * * * * * * * * * * * * * * * * * * * * * * * * * * * * * * * //

dimensions      [0 0 0 1 0 0 0];

internalField   nonuniform List<scalar> 
96305
(
0.393547
0.0893923
0.0140079
0.00166037
0.000157547
1.24395e-05
8.40246e-07
4.95671e-08
2.59537e-09
1.22223e-10
5.2337e-12
2.05671e-13
7.47709e-15
2.53267e-16
8.04409e-18
2.40907e-19
6.83474e-21
1.84357e-22
4.73946e-24
1.16292e-25
2.72582e-27
6.10502e-29
1.30678e-30
2.67339e-32
5.22798e-34
9.78385e-36
1.75199e-37
3.00189e-39
4.92971e-41
7.74262e-43
0.393556
0.0893861
0.0140041
0.00165951
0.000157434
1.243e-05
8.39619e-07
4.95255e-08
2.59264e-09
1.22054e-10
5.22393e-12
2.0515e-13
7.45183e-15
2.5217e-16
8.00208e-18
2.3951e-19
6.79478e-21
1.83384e-22
4.71969e-24
1.1598e-25
2.72314e-27
6.11004e-29
1.31028e-30
2.68581e-32
5.2631e-34
9.86837e-36
1.77041e-37
3.03713e-39
4.99065e-41
7.83689e-43
0.393562
0.0893768
0.013999
0.00165842
0.000157309
1.24224e-05
8.39302e-07
4.95115e-08
2.59205e-09
1.22031e-10
5.22203e-12
2.04964e-13
7.43798e-15
2.51391e-16
7.9681e-18
2.38364e-19
6.76625e-21
1.82961e-22
4.72275e-24
1.16458e-25
2.74389e-27
6.17524e-29
1.32742e-30
2.72503e-32
5.3407e-34
9.99831e-36
1.78975e-37
3.06117e-39
5.01012e-41
7.82252e-43
0.393573
0.0893362
0.0139765
0.00165296
0.000156675
1.23534e-05
8.33417e-07
4.908e-08
2.56537e-09
1.2061e-10
5.15467e-12
2.0203e-13
7.31914e-15
2.46988e-16
7.82477e-18
2.34569e-19
6.70047e-21
1.8324e-22
4.80598e-24
1.20856e-25
2.91126e-27
6.7126e-29
1.4813e-30
3.12849e-32
6.31846e-34
1.22044e-35
2.2483e-37
3.93178e-39
6.55078e-41
1.03822e-42
0.393659
0.0892336
0.0139223
0.00162413
0.000241503
2.67986e-06
1.79571e-08
8.81188e-11
5.76501e-13
1.29264e-14
4.55292e-16
1.54426e-17
4.81857e-19
1.38067e-20
3.62089e-22
8.58204e-24
1.77108e-25
2.87114e-27
2.01526e-29
-9.87108e-31
-6.3351e-32
-2.48507e-33
1.19348e-33
7.87031e-35
2.45353e-36
5.94411e-38
3.98488e-40
1.04272e-41
2.27057e-43
4.33158e-45
0.39367
0.089185
0.0138934
0.00161773
0.000240457
2.71107e-06
1.86542e-08
8.98895e-11
3.30033e-13
9.62077e-16
2.2837e-18
4.48318e-21
7.37463e-24
1.03197e-26
1.20404e-29
-1.20269e-32
-9.46218e-34
-3.14258e-35
-9.39386e-37
-2.60527e-38
-6.83014e-40
-1.69988e-41
1.33285e-39
4.42914e-40
2.92557e-41
1.03086e-42
5.00209e-43
2.04502e-44
5.63484e-46
1.23439e-47
0.393684
0.0891523
0.0138721
0.00161174
0.000238903
2.67932e-06
1.83119e-08
8.74774e-11
3.18971e-13
9.23169e-16
2.16438e-18
4.14867e-21
6.53707e-24
8.54958e-27
9.51452e-30
9.50068e-33
8.99779e-36
7.9222e-39
6.18581e-42
4.34898e-45
1.66734e-48
4.4902e-50
8.14441e-47
9.65958e-46
1.96231e-46
1.30248e-47
6.33702e-46
3.26602e-47
1.0248e-48
2.36836e-50
0.393696
0.089106
0.0138408
0.00160248
0.00023628
2.6118e-06
1.75015e-08
8.18927e-11
2.93031e-13
8.32953e-16
1.90839e-18
3.52496e-21
5.21539e-24
6.12333e-27
5.63622e-30
3.93198e-33
2.3352e-36
2.28918e-39
4.10394e-42
7.35175e-45
2.85356e-47
5.02146e-50
1.13334e-52
9.23599e-55
3.20943e-53
1.66029e-53
7.07897e-49
4.27218e-50
1.49606e-51
3.6444e-53
0.393712
0.0890331
0.0137917
0.00158737
0.00023179
2.48978e-06
1.6031e-08
7.18664e-11
2.47463e-13
6.82069e-16
1.51157e-18
2.60095e-21
3.22889e-24
2.55143e-27
1.04278e-30
2.97089e-34
-4.84498e-38
-7.75989e-41
-1.04115e-43
-1.11485e-46
-1.13078e-49
3.90346e-48
2.00145e-47
2.10935e-50
1.62807e-53
-1.38609e-50
4.89469e-45
6.8657e-47
7.497e-49
7.19632e-51
0.393723
0.0889223
0.0137158
0.00156338
0.000224419
2.28439e-06
1.35912e-08
5.57205e-11
1.76867e-13
4.38386e-16
7.59215e-19
8.00206e-22
4.65031e-25
1.6037e-28
5.6395e-32
-9.24022e-35
1.67117e-41
1.73821e-49
4.30789e-53
-1.9967e-58
-9.65495e-58
8.27069e-43
1.84533e-41
9.60282e-44
7.40588e-48
-6.24386e-47
6.84031e-40
2.20684e-42
8.17291e-45
3.64857e-47
0.393736
0.0887619
0.0136047
0.00152769
0.000213134
1.96809e-06
1.0011e-08
3.36966e-11
8.24129e-14
1.49288e-16
2.44505e-19
4.23095e-22
7.1227e-25
9.13899e-28
6.58359e-31
-3.06585e-34
1.0311e-40
1.38424e-51
2.49338e-38
8.37494e-37
1.47112e-38
3.28405e-41
1.92807e-40
3.24846e-36
2.33297e-38
1.24717e-40
5.40455e-43
0.393753
0.0885506
0.0134569
0.00147936
0.000197393
1.53842e-06
5.72049e-09
1.16891e-11
1.96773e-14
1.60918e-16
1.61549e-18
8.56416e-21
2.72229e-23
6.70767e-24
6.82854e-26
1.20485e-27
1.46913e-34
3.17673e-47
5.78851e-34
3.04236e-32
5.607e-34
1.63847e-36
5.71279e-38
1.62662e-33
1.5057e-35
9.92204e-38
5.35539e-40
0.393769
0.0883113
0.0132865
0.00142297
0.000178441
1.05654e-06
1.99488e-09
9.47024e-13
1.08024e-16
6.32511e-20
-6.38913e-23
7.5217e-23
2.07281e-25
1.57814e-15
3.38775e-18
1.88759e-19
1.73487e-26
-1.56306e-41
5.09289e-29
1.61329e-27
1.79076e-29
5.03657e-32
6.16606e-35
7.40832e-31
8.16505e-33
6.48405e-35
3.92767e-37
0.393791
0.0880945
0.0131306
0.00137109
0.000160364
6.56088e-07
2.64597e-10
1.12451e-14
5.35751e-17
2.2588e-09
1.7494e-12
-1.25812e-11
7.37597e-16
-1.35456e-21
5.47011e-19
8.80695e-19
-2.16954e-24
7.00435e-21
1.38639e-22
6.06203e-25
1.42709e-27
1.91862e-30
4.35481e-28
5.09088e-30
4.22146e-32
2.72108e-34
0.393797
0.0879624
0.0130363
0.00133979
0.000148702
4.41287e-07
2.08995e-12
1.91123e-14
3.38068e-10
2.58164e-05
0.000135372
0.0037999
0.000323329
9.44339e-06
1.23781e-07
9.04695e-10
3.35473e-12
8.17992e-15
1.40435e-17
1.73328e-20
2.58639e-23
3.69563e-26
5.11134e-25
4.73491e-27
3.81557e-29
2.70572e-31
0.393797
0.0879632
0.0130363
0.00133973
0.000147177
4.02408e-07
1.80191e-12
1.53536e-14
9.57999e-05
3.24297
183.423
4518.24
0.12383
0.00270227
5.62761e-05
7.50308e-07
6.04691e-09
3.13059e-11
1.08814e-13
2.54719e-16
4.00222e-19
5.48803e-22
5.36744e-23
5.08585e-25
4.13594e-27
2.9105e-29
0.393789
0.0880923
0.0131297
0.00137083
0.00015633
5.30651e-07
1.89697e-11
2.62653e-14
7.87365e-08
0.000126961
3.36398e-06
-0.000929206
-0.000169033
-1.86791e-06
5.43609e-08
2.31778e-08
2.27745e-11
7.6744e-15
5.00034e-17
1.42076e-19
2.44914e-22
2.61813e-25
1.10344e-25
1.47425e-27
1.33301e-29
9.20234e-32
0.39377
0.0883096
0.0132851
0.00142255
0.000173304
8.52076e-07
8.85882e-10
-9.04156e-15
1.76006e-19
1.9434e-26
-2.80434e-31
2.29824e-28
5.96225e-15
1.82463e-08
1.07923e-11
-5.54998e-12
-5.29596e-16
-1.53613e-21
2.04419e-18
1.727e-17
-1.86318e-24
2.01677e-24
1.20581e-22
3.58037e-24
1.25915e-26
1.62108e-29
3.07135e-28
4.01649e-30
3.43988e-32
2.09382e-34
0.393751
0.0885477
0.0134549
0.00147879
0.000192618
1.31586e-06
3.71433e-09
4.60339e-12
1.90429e-14
3.48566e-16
2.2445e-18
6.33919e-21
1.36406e-21
9.2098e-17
6.06615e-19
4.83592e-20
1.37667e-25
-1.39088e-42
4.2333e-32
4.37946e-28
9.04426e-29
5.52529e-31
7.59776e-34
9.67941e-31
1.13102e-32
8.16675e-35
3.97898e-37
0.393737
0.0887579
0.0136026
0.00152701
0.000209433
1.78084e-06
7.91714e-09
2.18798e-11
4.27813e-14
9.04666e-17
3.18584e-19
2.03567e-21
7.9598e-24
5.4848e-25
7.53312e-27
2.82744e-28
1.46411e-33
1.7196e-49
3.41554e-37
2.12948e-33
2.02563e-33
2.05428e-35
5.71562e-37
3.08899e-33
3.25703e-35
1.93951e-37
6.54971e-40
0.39372
0.0889155
0.0137122
0.00156255
0.000221756
2.14728e-06
1.19061e-08
4.48978e-11
1.28898e-13
2.67077e-16
3.67176e-19
3.56052e-22
2.7295e-25
1.9295e-28
3.18681e-31
7.07146e-34
8.17037e-39
2.90973e-54
4.76988e-43
3.41318e-39
2.66811e-38
4.89452e-40
3.00634e-39
8.80263e-36
8.5287e-38
4.23347e-40
1.06266e-42
0.393743
0.089038
0.0137907
0.00158674
0.000229962
2.39659e-06
1.4851e-08
6.38205e-11
2.11413e-13
5.61523e-16
1.15314e-18
1.65613e-21
1.44579e-24
6.43483e-28
1.50585e-31
-1.92573e-34
1.16094e-39
7.92858e-48
3.19274e-51
-1.54516e-55
-9.21069e-57
3.92709e-52
7.95017e-48
2.76601e-44
5.48208e-45
5.18689e-42
1.45686e-38
1.37955e-40
5.9105e-43
1.42479e-45
0.393669
0.0891033
0.0138388
0.00160168
0.000235035
2.55013e-06
1.67195e-08
7.64177e-11
2.67331e-13
7.4352e-16
1.66344e-18
2.96974e-21
4.12097e-24
4.21453e-27
2.88224e-30
1.22402e-33
6.91767e-37
2.50403e-38
1.1821e-40
2.23597e-43
2.66181e-46
2.24815e-49
1.32978e-52
2.65289e-51
7.54188e-51
5.92544e-47
7.08116e-42
1.2907e-43
1.45044e-45
1.41517e-47
0.393685
0.0891419
0.0138687
0.00161094
0.000238003
2.6371e-06
1.77832e-08
8.37551e-11
3.0095e-13
8.5739e-16
1.97033e-18
3.6661e-21
5.52551e-24
6.77164e-27
6.88463e-30
6.02903e-33
4.61815e-36
3.35785e-39
2.7634e-42
2.56192e-45
2.47331e-48
2.22283e-51
1.76132e-54
4.05011e-56
1.47043e-55
-1.0238e-51
3.94477e-45
7.92932e-47
9.83831e-49
1.14772e-50
0.393671
0.0891825
0.013891
0.00161686
0.000239846
2.68705e-06
1.83703e-08
8.77345e-11
3.19336e-13
9.21439e-16
2.15554e-18
4.14024e-21
6.59299e-24
8.81444e-27
1.01382e-29
1.0491e-32
1.03306e-35
8.06074e-39
-4.51248e-41
-1.31409e-42
-3.02968e-44
-6.80417e-46
-2.78748e-47
-3.09071e-49
6.6565e-47
1.36091e-47
2.72434e-44
1.3829e-45
4.6864e-47
1.32599e-48
0.39366
0.0892301
0.0139199
0.00162336
0.000240603
2.68566e-06
1.83088e-08
8.72034e-11
3.1585e-13
9.07616e-16
2.14776e-18
4.86005e-21
2.46248e-23
3.55895e-25
4.13469e-27
-5.95519e-29
-6.41691e-30
-2.92038e-31
-1.068e-32
-3.4049e-34
-9.94805e-36
-2.72433e-37
-7.06133e-39
3.90418e-40
3.83692e-40
2.34284e-41
8.6717e-41
2.56684e-42
6.2282e-44
1.34703e-45
0.393574
0.0893327
0.0139741
0.0016522
0.000156517
1.23308e-05
8.3086e-07
4.8844e-08
2.54703e-09
1.19377e-10
5.08181e-12
1.98203e-13
7.13684e-15
2.39125e-16
7.51289e-18
2.23117e-19
6.30619e-21
1.70466e-22
4.41379e-24
1.09378e-25
2.59074e-27
5.86153e-29
1.26679e-30
2.6176e-32
5.17984e-34
9.83111e-36
1.78739e-37
3.1057e-39
5.16856e-41
8.22731e-43
0.393563
0.0893737
0.0139966
0.00165763
0.000157147
1.23986e-05
8.36595e-07
4.92598e-08
2.57247e-09
1.20716e-10
5.14449e-12
2.00899e-13
7.24617e-15
2.43107e-16
7.6393e-18
2.26269e-19
6.35166e-21
1.69607e-22
4.31703e-24
1.04809e-25
2.42694e-27
5.36044e-29
1.12988e-30
2.27524e-32
4.38044e-34
8.07325e-36
1.42563e-37
2.41451e-39
3.92919e-41
6.13915e-43
0.393557
0.089383
0.0140019
0.00165875
0.000157277
1.24066e-05
8.36955e-07
4.9278e-08
2.57339e-09
1.20764e-10
5.14853e-12
2.01179e-13
7.26428e-15
2.44098e-16
7.68339e-18
2.27809e-19
6.39473e-21
1.70556e-22
4.33238e-24
1.04952e-25
2.4263e-27
5.35568e-29
1.1296e-30
2.27877e-32
4.4018e-34
8.148e-36
1.44699e-37
2.46626e-39
4.04125e-41
6.36967e-43
0.393548
0.0893892
0.0140055
0.0016596
0.000157388
1.24159e-05
8.37577e-07
4.93202e-08
2.57626e-09
1.20947e-10
5.15891e-12
2.01783e-13
7.29364e-15
2.45407e-16
7.73357e-18
2.29573e-19
6.44852e-21
1.72036e-22
4.36994e-24
1.05851e-25
2.44746e-27
5.40558e-29
1.14135e-30
2.30597e-32
4.46164e-34
8.27761e-36
1.47331e-37
2.51774e-39
4.14041e-41
6.55225e-43
0.393816
0.0910744
0.0148243
0.0018647
0.000191602
1.66832e-05
1.26336e-06
8.4819e-08
5.12473e-09
2.82015e-10
1.42744e-11
6.70013e-13
2.9369e-14
1.20942e-15
4.70353e-17
1.73518e-18
6.09381e-20
2.04276e-21
6.5478e-23
2.00884e-24
5.90196e-26
1.66062e-27
4.47471e-29
1.15469e-30
2.85362e-32
6.75643e-34
1.53279e-35
3.33395e-37
6.96357e-39
1.39513e-40
0.393808
0.0910795
0.0148288
0.00186621
0.000191916
1.67292e-05
1.26844e-06
8.52734e-08
5.15926e-09
2.8432e-10
1.44122e-11
6.77544e-13
2.9749e-14
1.22742e-15
4.78435e-17
1.76992e-18
6.23731e-20
2.09956e-21
6.76198e-23
2.08533e-24
6.1602e-26
1.74285e-27
4.72209e-29
1.225e-30
3.0424e-32
7.23609e-34
1.64871e-35
3.59976e-37
7.54439e-39
1.51609e-40
0.393792
0.0910903
0.0148389
0.0018696
0.000192618
1.68312e-05
1.27971e-06
8.62945e-08
5.23879e-09
2.89784e-10
1.47478e-11
6.96226e-13
3.07038e-14
1.2729e-15
4.98856e-17
1.85733e-18
6.59584e-20
2.24036e-21
7.28906e-23
2.27247e-24
6.78938e-26
1.94289e-27
5.32448e-29
1.39662e-30
3.50582e-32
8.4199e-34
1.93579e-35
4.26159e-37
8.99784e-39
1.82008e-40
0.393759
0.0911034
0.0148552
0.00187599
0.00019401
1.69924e-05
1.2947e-06
8.74915e-08
5.32325e-09
2.95097e-10
1.50484e-11
7.1154e-13
3.1413e-14
1.30318e-15
5.11114e-17
1.90593e-18
6.7898e-20
2.31825e-21
7.59584e-23
2.388e-24
7.19905e-26
2.07951e-27
5.75281e-29
1.52298e-30
3.85561e-32
9.32835e-34
2.1573e-35
4.77172e-37
1.01142e-38
2.05359e-40
0.393728
0.0911061
0.0148725
0.00188524
0.000359317
8.49527e-06
1.27889e-07
1.34147e-09
1.08401e-11
9.40909e-14
1.85298e-15
6.76408e-17
2.64657e-18
9.9287e-20
3.54842e-21
1.21206e-22
3.96546e-24
1.24502e-25
3.75354e-27
1.08733e-28
3.02504e-30
8.09368e-32
2.08291e-33
5.14053e-35
1.89767e-35
1.52769e-36
1.76484e-38
6.22514e-40
1.79653e-41
4.51988e-43
0.393684
0.0911197
0.0148902
0.00189188
0.00036187
8.62113e-06
1.30668e-07
1.37034e-09
1.05333e-11
6.20373e-14
2.8934e-16
1.09582e-18
3.43996e-21
9.12415e-24
2.08747e-26
4.22941e-29
8.09797e-32
2.17834e-34
1.78275e-36
1.75704e-38
-2.37781e-40
-2.43952e-41
-1.04224e-42
-3.51905e-44
2.40451e-42
1.57511e-42
1.06127e-41
6.23448e-43
2.38405e-44
7.20557e-46
0.39365
0.0911324
0.0149032
0.00189617
0.000363409
8.71001e-06
1.3316e-07
1.41205e-09
1.10042e-11
6.58562e-14
3.12312e-16
1.20023e-18
3.80355e-21
1.01073e-23
2.30058e-26
4.62419e-29
8.52618e-32
1.47572e-34
2.35904e-37
3.37295e-40
4.24518e-43
4.69294e-46
4.5069e-49
4.71609e-51
5.07593e-49
1.82857e-48
9.05644e-45
7.07537e-46
3.24878e-47
1.10551e-48
0.393609
0.0911369
0.0149111
0.00189873
0.000364269
8.76116e-06
1.34799e-07
1.44456e-09
1.14386e-11
6.99075e-14
3.39291e-16
1.33089e-18
4.2663e-21
1.12917e-23
2.51094e-26
4.85984e-29
8.651e-32
1.4837e-34
2.39919e-37
3.46245e-40
4.41706e-43
5.08097e-46
5.29721e-49
4.93712e-52
2.15742e-54
8.59633e-54
1.33039e-47
1.19836e-48
6.09815e-50
2.17165e-51
0.393558
0.0911296
0.0149117
0.00189868
0.000364083
8.75359e-06
1.35035e-07
1.45973e-09
1.17652e-11
7.38572e-14
3.69818e-16
1.48974e-18
4.82304e-21
1.24201e-23
2.50408e-26
3.99531e-29
1.4858e-32
2.61605e-37
3.53725e-40
6.60557e-43
4.61506e-47
1.67323e-47
8.01643e-47
8.69062e-50
4.95405e-53
-1.46177e-53
6.85781e-48
1.49364e-49
2.4641e-51
3.6819e-53
0.393491
0.0911027
0.0148999
0.00189425
0.000362119
8.64028e-06
1.32474e-07
1.43361e-09
1.1729e-11
7.58478e-14
3.92732e-16
1.6124e-18
5.12475e-21
1.20954e-23
1.98458e-26
4.15421e-29
1.16681e-34
4.48542e-46
4.85852e-51
2.07139e-52
9.13223e-54
1.62544e-42
2.00403e-41
7.61669e-44
6.31973e-48
-5.33821e-49
7.68221e-43
5.51165e-45
3.51682e-47
2.25704e-49
0.39341
0.0910468
0.0148703
0.00188314
0.000357342
8.3493e-06
1.24891e-07
1.32677e-09
1.0896e-11
7.30324e-14
4.00568e-16
1.77382e-18
6.24953e-21
1.7054e-23
3.31123e-26
3.67356e-29
8.50419e-34
1.59297e-43
6.10299e-38
1.81454e-36
2.35315e-38
4.3909e-41
8.66645e-43
1.45028e-38
6.74565e-41
1.76967e-43
3.04937e-46
0.393319
0.0909605
0.0148178
0.0018634
0.000348777
7.81036e-06
1.10172e-07
1.10702e-09
9.08531e-12
6.75193e-14
4.41161e-16
2.24342e-18
8.3103e-21
3.54007e-22
4.52163e-24
1.04527e-26
-1.21829e-30
2.35879e-39
2.672e-33
1.73182e-31
2.32674e-33
5.30013e-36
5.04233e-39
1.23028e-35
9.97665e-38
5.7153e-40
2.3246e-42
0.39323
0.0908495
0.0147467
0.00183611
0.000336598
7.02544e-06
8.85313e-08
1.42934e-09
7.2098e-13
2.20054e-16
7.26678e-20
5.79963e-22
9.8846e-20
9.71009e-14
1.15902e-16
-2.56137e-19
2.5911e-24
-3.06816e-35
8.04201e-28
2.33143e-26
1.65879e-28
3.2672e-31
3.04744e-34
7.25379e-33
8.06174e-35
5.9293e-37
3.32396e-39
0.39316
0.0907417
0.0146752
0.00180823
0.000323707
6.18659e-06
6.57752e-08
7.49356e-10
1.04716e-12
3.06996e-08
3.01379e-10
-3.39885e-10
8.04787e-14
1.76879e-16
3.00113e-18
4.57964e-17
-8.62325e-23
2.5799e-19
3.53273e-21
1.10621e-23
1.70156e-26
1.46076e-29
4.5893e-30
5.10681e-32
3.97222e-34
2.45344e-36
0.393117
0.0906719
0.0146293
0.00179042
0.000315012
5.62321e-06
5.19896e-08
4.05113e-10
1.16173e-06
0.00104335
0.0221884
1.24642
0.00209048
1.82426e-05
1.49201e-07
5.7293e-09
4.48894e-11
1.58601e-13
3.82438e-16
6.30994e-19
7.05679e-22
5.13155e-25
5.70386e-27
4.69306e-29
3.45033e-31
2.3292e-33
0.39312
0.090673
0.0146293
0.00179035
0.000314073
5.52633e-06
4.96146e-08
3.55306e-10
0.148696
614.016
37126.9
1.22986e+06
36.497
0.494929
0.00820076
9.10433e-05
6.06273e-07
2.52806e-09
6.86131e-12
1.20227e-14
1.32798e-17
9.33308e-21
5.26607e-25
4.26869e-27
3.08051e-29
2.03475e-31
0.393158
0.0907402
0.0146743
0.00180796
0.000321156
5.90854e-06
5.7976e-08
5.01858e-10
8.08642e-05
0.00510539
0.00156779
0.118402
0.00145081
-7.65521e-07
-1.1508e-08
7.17831e-09
1.948e-11
1.8205e-14
1.56179e-16
6.0624e-19
1.07393e-21
9.69181e-25
1.04822e-27
1.29929e-29
1.12843e-31
8.0777e-34
0.39323
0.0908493
0.0147457
0.00183576
0.00033341
6.66142e-06
7.73612e-08
1.04131e-09
5.14725e-14
3.45016e-26
9.1031e-29
1.02466e-21
1.38315e-10
1.02722e-07
8.94035e-11
-1.60713e-10
2.05025e-13
8.15988e-17
-4.48192e-19
2.58447e-17
-1.04018e-23
6.1294e-24
1.21615e-21
1.69109e-23
4.67138e-26
4.8901e-29
2.85029e-30
3.87279e-32
3.4828e-34
2.4706e-36
0.393315
0.0909584
0.0148165
0.00186297
0.000345979
7.49335e-06
1.00532e-07
9.61323e-10
7.46418e-12
5.4881e-14
2.83298e-16
6.80346e-19
-2.82593e-20
7.08845e-15
3.80786e-17
5.14485e-20
8.75401e-24
5.46399e-37
9.5091e-31
6.09977e-27
3.91918e-28
1.62059e-30
1.82544e-33
8.49264e-33
1.04838e-34
8.91843e-37
5.76157e-39
0.393408
0.0910454
0.0148689
0.00188271
0.000355344
8.13087e-06
1.18465e-07
1.22786e-09
1.0059e-11
7.00446e-14
4.15973e-16
2.05933e-18
8.2303e-21
4.87601e-23
7.16966e-25
2.44031e-27
-2.6029e-30
3.82084e-42
3.55457e-36
2.4966e-32
6.93298e-33
4.59057e-35
6.09929e-38
2.24245e-35
2.44353e-37
1.69493e-39
9.00229e-42
0.393503
0.0911015
0.0148984
0.00189385
0.00036083
8.50902e-06
1.2895e-07
1.38401e-09
1.13307e-11
7.41183e-14
3.8964e-16
1.61734e-18
5.18263e-21
1.23786e-23
2.04652e-26
3.9195e-29
9.4301e-35
5.3713e-47
1.57434e-41
6.70816e-38
8.01498e-38
8.83092e-40
1.11085e-41
4.118e-38
3.96658e-40
2.25713e-42
9.53496e-45
0.393555
0.0911326
0.0149117
0.00189833
0.000363283
8.68236e-06
1.33376e-07
1.44136e-09
1.16826e-11
7.4203e-14
3.76512e-16
1.52674e-18
4.87931e-21
1.19236e-23
2.1233e-26
5.02181e-29
1.00872e-33
1.01185e-41
4.83232e-48
1.37833e-48
-6.48207e-56
3.02648e-50
7.01405e-46
2.23926e-43
8.99107e-45
1.39122e-44
4.52624e-41
4.99227e-43
3.19158e-45
1.63775e-47
0.393592
0.0911324
0.0149105
0.00189846
0.000363762
8.72462e-06
1.3416e-07
1.4412e-09
1.14826e-11
7.08349e-14
3.47495e-16
1.37344e-18
4.40092e-21
1.1455e-23
2.4364e-26
4.34578e-29
7.05927e-32
1.1964e-34
2.09021e-37
3.17131e-40
3.89175e-43
3.76765e-46
2.74882e-49
1.44731e-50
1.59275e-50
8.04744e-50
4.08922e-45
1.31719e-46
2.62704e-48
4.25525e-50
0.393649
0.0911281
0.0149014
0.00189576
0.000363133
8.69341e-06
1.33035e-07
1.41457e-09
1.10774e-11
6.67283e-14
3.18552e-16
1.22939e-18
3.89264e-21
1.02492e-23
2.29068e-26
4.50083e-29
8.15384e-32
1.39776e-34
2.20412e-37
3.06734e-40
3.71522e-43
3.93083e-46
3.65884e-49
3.03053e-52
2.52922e-55
-8.21738e-55
2.34973e-48
2.1507e-49
6.98513e-50
9.60219e-51
0.393685
0.0911193
0.0148895
0.0018916
0.000361724
8.62494e-06
1.31023e-07
1.37841e-09
1.06383e-11
6.29279e-14
2.94584e-16
1.11782e-18
3.50367e-21
9.23945e-24
2.09285e-26
4.18251e-29
7.6e-32
1.28281e-34
2.00102e-37
2.79533e-40
2.35335e-43
-3.28975e-45
-1.04583e-46
-2.81476e-48
-7.082e-50
8.59847e-51
-3.4013e-45
7.93429e-46
2.44954e-46
2.24886e-47
0.393726
0.0911052
0.0148718
0.00188496
0.000359437
8.506e-06
1.27966e-07
1.33118e-09
1.01378e-11
5.90958e-14
2.72778e-16
1.02589e-18
3.33239e-21
1.35643e-23
1.82058e-25
4.94281e-27
1.39744e-28
3.80504e-30
9.86314e-32
2.42129e-33
5.56612e-35
1.18217e-36
2.26065e-38
3.68478e-40
4.39005e-42
-7.42552e-45
-4.44122e-40
1.31807e-41
1.42509e-42
6.78166e-44
0.393758
0.0911024
0.0148546
0.00187573
0.000193947
1.69819e-05
1.29326e-06
8.73336e-08
5.30828e-09
2.93867e-10
1.49583e-11
7.05732e-13
3.10741e-14
1.28502e-15
5.02152e-17
1.86485e-18
6.61394e-20
2.24755e-21
7.32766e-23
2.29134e-24
6.86861e-26
1.97246e-27
5.42752e-29
1.43144e-30
3.62143e-32
8.79061e-34
2.04853e-35
4.58397e-37
9.86199e-39
2.0368e-40
0.393791
0.0910891
0.0148381
0.00186932
0.000192554
1.68202e-05
1.27824e-06
8.61338e-08
5.22395e-09
2.88582e-10
1.46619e-11
6.90783e-13
3.03879e-14
1.25612e-15
4.90605e-17
1.81969e-18
6.43593e-20
2.1765e-21
7.04853e-23
2.18733e-24
6.50441e-26
1.85313e-27
5.06042e-29
1.3247e-30
3.32578e-32
8.01256e-34
1.85319e-35
4.11618e-37
8.79087e-39
1.80242e-40
0.393807
0.0910786
0.0148282
0.00186597
0.000191857
1.67189e-05
1.26704e-06
8.51181e-08
5.14493e-09
2.83169e-10
1.43321e-11
6.72371e-13
2.94539e-14
1.21184e-15
4.70923e-17
1.73608e-18
6.09484e-20
2.04345e-21
6.55457e-23
2.01329e-24
5.92393e-26
1.6704e-27
4.51439e-29
1.16985e-30
2.90845e-32
6.93864e-34
1.5895e-35
3.49682e-37
7.3983e-39
1.50378e-40
0.393814
0.0910735
0.0148238
0.00186446
0.000191541
1.66726e-05
1.26194e-06
8.46645e-08
5.1105e-09
2.80879e-10
1.41944e-11
6.6503e-13
2.90828e-14
1.19454e-15
4.63151e-17
1.70297e-18
5.9595e-20
1.99028e-21
6.35555e-23
1.9426e-24
5.68805e-26
1.59581e-27
4.29215e-29
1.10707e-30
2.73925e-32
6.50724e-34
1.48416e-35
3.2518e-37
6.85361e-39
1.38815e-40
0.393405
0.0904667
0.0145531
0.00179854
0.000180668
1.53183e-05
1.12627e-06
7.32711e-08
4.28465e-09
2.28055e-10
1.1163e-11
5.06861e-13
2.15052e-14
8.57997e-16
3.23658e-17
1.15968e-18
3.96148e-20
1.29378e-21
4.04734e-23
1.21411e-24
3.49503e-26
9.65629e-28
2.561e-29
6.5208e-31
1.59428e-32
3.74393e-34
8.44655e-36
1.83185e-37
3.82435e-39
7.68335e-41
0.393407
0.0904687
0.0145542
0.00179896
0.000180763
1.53333e-05
1.12807e-06
7.3445e-08
4.29859e-09
2.29025e-10
1.12229e-11
5.10204e-13
2.16771e-14
8.6628e-16
3.27444e-17
1.17626e-18
4.03118e-20
1.32175e-21
4.15378e-23
1.25237e-24
3.6242e-26
1.00677e-27
2.68487e-29
6.87252e-31
1.68878e-32
3.98486e-34
9.03066e-36
1.96654e-37
4.1209e-39
8.30759e-41
0.393409
0.0904728
0.0145566
0.00179981
0.000180955
1.53642e-05
1.13179e-06
7.38029e-08
4.3276e-09
2.31068e-10
1.13507e-11
5.17416e-13
2.20512e-14
8.84399e-16
3.35774e-17
1.2129e-18
4.18574e-20
1.38403e-21
4.39176e-23
1.33813e-24
3.91493e-26
1.09969e-27
2.96565e-29
7.67447e-31
1.9058e-32
4.54161e-34
1.03904e-35
2.28286e-37
4.82379e-39
9.80089e-41
0.393415
0.0904783
0.0145598
0.00180094
0.000181243
1.53817e-05
1.13292e-06
7.39124e-08
4.3386e-09
2.31998e-10
1.14168e-11
5.21416e-13
2.22659e-14
8.95031e-16
3.40819e-17
1.23647e-18
4.29436e-20
1.43229e-21
4.59344e-23
1.41633e-24
4.19618e-26
1.19378e-27
3.26008e-29
8.53982e-31
2.14465e-32
5.16223e-34
1.19143e-35
2.63786e-37
5.61035e-39
1.14663e-40
0.393425
0.0904852
0.0145625
0.00180246
0.000335313
7.57496e-06
1.07594e-07
1.06038e-09
8.11637e-12
6.96571e-14
1.41559e-15
5.11474e-17
1.95007e-18
7.12621e-20
2.48469e-21
8.29646e-23
2.65871e-24
8.19321e-26
2.4302e-27
6.93963e-29
1.90895e-30
5.05548e-32
1.29044e-33
1.88299e-34
2.59418e-35
1.12458e-36
1.11159e-38
3.81652e-40
1.08822e-41
2.72649e-43
0.393429
0.0904884
0.0145644
0.00180336
0.000335899
7.61926e-06
1.08777e-07
1.07166e-09
7.76781e-12
4.34085e-14
1.93661e-16
7.08485e-19
2.17252e-21
5.69608e-24
1.30341e-26
2.66961e-29
5.23446e-32
1.51691e-34
1.45899e-36
2.11314e-38
1.54798e-40
-5.91145e-42
-3.8573e-43
1.1977e-41
1.98971e-41
2.2948e-42
7.92348e-42
4.47794e-43
1.68309e-44
5.04581e-46
0.393434
0.0904873
0.0145639
0.00180355
0.000336218
7.65363e-06
1.09985e-07
1.0946e-09
8.04759e-12
4.57937e-14
2.08556e-16
7.79081e-19
2.43397e-21
6.47673e-24
1.49937e-26
3.10385e-29
5.93666e-32
1.07464e-34
1.82724e-37
2.84777e-40
4.02819e-43
5.17918e-46
6.02744e-49
2.25664e-48
2.31745e-47
5.83745e-48
7.89025e-45
6.03837e-46
2.77737e-47
9.5669e-49
0.393434
0.0904787
0.0145583
0.00180222
0.000336038
7.66735e-06
1.10859e-07
1.11606e-09
8.35855e-12
4.87879e-14
2.29017e-16
8.82478e-19
2.83188e-21
7.66962e-24
1.78572e-26
3.69909e-29
7.22846e-32
1.4069e-34
2.68848e-37
4.76867e-40
7.65779e-43
1.11151e-45
1.45491e-48
1.70885e-51
1.02802e-52
4.16791e-53
1.22859e-47
1.13003e-48
5.95338e-50
2.22859e-51
0.39343
0.0904576
0.0145445
0.00179826
0.000334986
7.64193e-06
1.10967e-07
1.13108e-09
8.67617e-12
5.25234e-14
2.57999e-16
1.04257e-18
3.4877e-21
9.6773e-24
2.23375e-26
4.37659e-29
2.37339e-32
4.91947e-37
7.05766e-40
1.22718e-42
1.04655e-46
9.30224e-51
9.7339e-51
7.50349e-54
4.54749e-57
-1.15858e-56
2.91345e-50
2.46248e-51
1.34289e-52
5.13184e-54
0.393424
0.0904169
0.0145182
0.00179014
0.000332481
7.54422e-06
1.09471e-07
1.12753e-09
8.90696e-12
5.67784e-14
2.98402e-16
1.29554e-18
4.62372e-21
1.33705e-23
3.00114e-26
9.1833e-29
5.38737e-34
3.02817e-45
1.98156e-51
8.78887e-52
6.15606e-57
1.39488e-45
2.68532e-45
2.14923e-48
7.85174e-53
-1.05537e-51
7.1573e-46
7.60758e-48
6.9263e-50
6.06059e-52
0.393413
0.0903505
0.0144741
0.00177602
0.000327749
7.32701e-06
1.04968e-07
1.08148e-09
8.80825e-12
6.02457e-14
3.49497e-16
1.70767e-18
6.93817e-21
2.27696e-23
5.4936e-26
7.26945e-29
1.64356e-33
1.64474e-46
1.34373e-40
5.31725e-40
1.39732e-42
7.47415e-46
6.3976e-46
3.54142e-42
1.41527e-44
5.89098e-47
2.09392e-49
0.393396
0.0902563
0.0144099
0.00175475
0.000320167
6.9392e-06
9.56043e-08
9.51664e-10
7.74512e-12
5.78933e-14
3.86731e-16
1.90895e-18
6.24273e-21
1.45018e-23
3.09094e-26
4.61119e-29
6.39216e-34
7.92183e-41
4.86967e-35
1.64542e-34
5.89024e-37
4.84667e-40
2.3064e-43
2.89408e-40
1.97612e-42
8.13027e-45
4.20974e-47
0.393388
0.0901429
0.0143317
0.00172785
0.000309982
6.36855e-06
8.005e-08
1.29397e-09
6.27684e-13
1.70094e-16
4.85682e-20
1.77879e-22
1.43364e-22
1.26806e-16
1.13454e-19
-4.13558e-22
2.43464e-27
-8.15153e-38
1.11669e-27
4.03087e-29
9.69128e-32
8.85742e-35
4.48101e-38
2.98569e-37
3.50122e-39
2.68262e-41
1.72337e-43
0.393375
0.0900369
0.0142573
0.00170168
0.000299516
5.74193e-06
6.17678e-08
6.69065e-10
7.5811e-16
1.62871e-10
5.06087e-13
-6.52682e-13
-1.53668e-17
2.30212e-19
7.39739e-19
7.3484e-20
-7.10697e-25
1.05447e-21
3.66071e-24
5.80147e-27
5.07451e-30
2.71389e-33
2.84371e-34
3.18948e-36
2.68125e-38
2.18122e-40
0.393369
0.0899721
0.0142115
0.0016855
0.000292614
5.31779e-06
5.05299e-08
3.82558e-10
9.64947e-10
1.65732e-05
5.75897e-05
0.00240909
1.78558e-06
1.68503e-08
1.55846e-10
7.08288e-12
4.35853e-14
1.10103e-16
1.77023e-19
1.93665e-22
1.42763e-25
7.13881e-29
6.93597e-31
6.41064e-33
5.46873e-35
4.3849e-37
0.39337
0.0899722
0.0142111
0.00168541
0.000291875
5.24086e-06
4.85274e-08
3.42301e-10
0.000125542
1.84621
146.232
3669.87
0.073076
0.000821339
1.22964e-05
1.14496e-07
5.8641e-10
1.73337e-12
3.13773e-15
3.56322e-18
2.73947e-21
1.4647e-24
7.70795e-29
7.05238e-31
5.93507e-33
4.67919e-35
0.393376
0.0900357
0.0142562
0.00170138
0.000297511
5.52331e-06
5.51347e-08
4.56932e-10
7.13194e-08
5.67241e-05
3.78511e-06
0.000213978
-7.0925e-07
-1.85335e-10
9.22429e-12
7.56975e-12
3.08752e-14
3.63297e-17
1.26394e-19
2.61053e-22
2.99885e-25
2.05916e-28
1.32471e-31
1.99528e-33
2.18278e-35
2.00926e-37
0.393384
0.0901399
0.0143301
0.00172738
0.000307458
6.08789e-06
7.08915e-08
9.17339e-10
3.75356e-14
1.94668e-24
3.16439e-31
3.74255e-26
1.03399e-13
7.86323e-11
5.17235e-14
-2.62102e-13
-1.4076e-16
9.24345e-20
3.61975e-21
3.36888e-21
-7.26215e-27
4.27988e-23
2.26516e-24
1.05844e-26
1.72348e-29
1.36711e-32
3.06926e-34
5.57093e-36
6.82297e-38
6.66603e-40
0.393399
0.0902534
0.0144082
0.00175422
0.000317915
6.7016e-06
8.86231e-08
8.3693e-10
6.19607e-12
4.39407e-14
1.93235e-16
2.86668e-19
3.22004e-22
8.04472e-18
3.48237e-20
6.92661e-23
7.99867e-27
-1.92675e-36
1.11282e-31
1.58867e-29
2.42322e-31
5.49644e-34
4.69579e-37
7.4141e-37
1.32717e-38
1.60321e-40
1.44106e-42
0.393413
0.0903487
0.0144723
0.00177549
0.000326079
7.16196e-06
1.00685e-07
1.02352e-09
8.39017e-12
5.97802e-14
3.77144e-16
2.05013e-18
9.17495e-21
3.27802e-23
8.80906e-26
1.33022e-28
2.53265e-33
7.03027e-44
6.38806e-39
3.16972e-35
2.39265e-36
8.58769e-39
7.79336e-42
1.27425e-39
2.00186e-41
2.11869e-43
1.39777e-45
0.393435
0.0904197
0.0145168
0.00178966
0.000331338
7.43988e-06
1.07105e-07
1.10231e-09
8.8202e-12
5.79692e-14
3.17613e-16
1.44065e-18
5.35919e-21
1.60044e-23
3.56849e-26
9.23296e-29
2.07322e-34
5.28104e-50
4.42272e-45
2.23479e-41
9.74829e-42
5.56725e-44
1.2102e-45
1.89242e-42
1.39038e-44
8.51904e-47
4.36751e-49
0.393418
0.0904562
0.0145436
0.00179776
0.000334251
7.57732e-06
1.0972e-07
1.1214e-09
8.7015e-12
5.37789e-14
2.71523e-16
1.12906e-18
3.86697e-21
1.08354e-23
2.44062e-26
8.18622e-29
3.05594e-33
4.64832e-41
1.02999e-47
1.19364e-48
-9.3817e-57
2.93288e-51
3.05767e-49
1.38419e-47
3.34686e-49
1.01938e-48
5.55247e-44
8.32676e-46
8.1902e-48
7.22021e-50
0.393436
0.0904701
0.0145566
0.00180183
0.000335506
7.62785e-06
1.10191e-07
1.11283e-09
8.40475e-12
4.97279e-14
2.37394e-16
9.30323e-19
3.02302e-21
8.21345e-24
1.88887e-26
3.80277e-29
7.17035e-32
1.4152e-34
2.9073e-37
5.03575e-40
6.59158e-43
6.3973e-46
4.66432e-49
2.59356e-52
3.18797e-55
7.17478e-54
4.45566e-48
2.10041e-49
6.86357e-51
2.11182e-52
0.393434
0.0904856
0.0145619
0.00180298
0.000335828
7.62783e-06
1.09601e-07
1.0935e-09
8.08485e-12
4.63872e-14
2.13284e-16
8.04168e-19
2.5285e-21
6.73631e-24
1.55208e-26
3.1903e-29
6.12119e-32
1.13799e-34
2.02047e-37
3.30649e-40
4.90566e-43
6.57551e-46
7.95171e-49
8.68133e-52
8.59714e-55
-5.19791e-54
1.13923e-46
1.79987e-47
1.36676e-48
7.19374e-50
0.393431
0.0904871
0.0145632
0.00180295
0.000335627
7.60149e-06
1.08562e-07
1.07141e-09
7.79239e-12
4.37562e-14
1.9629e-16
7.21466e-19
2.21914e-21
5.8209e-24
1.32999e-26
2.71203e-29
5.06715e-32
8.83964e-35
1.43611e-37
2.12471e-40
2.27892e-43
-1.58416e-45
-5.55016e-47
-1.51377e-48
-3.88423e-50
-2.68682e-50
2.79381e-43
2.97617e-44
1.64875e-45
6.89391e-47
0.393426
0.0904839
0.0145613
0.00180203
0.000335118
7.56282e-06
1.07293e-07
1.04911e-09
7.5362e-12
4.16799e-14
1.83838e-16
6.67175e-19
2.12603e-21
8.97234e-24
1.27697e-25
3.43923e-27
9.67352e-29
2.62344e-30
6.8215e-32
1.68656e-33
3.96474e-35
8.74645e-37
1.79498e-38
3.3977e-40
5.50583e-42
6.84239e-44
1.30523e-39
7.70429e-41
2.87739e-42
8.91304e-44
0.393416
0.0904766
0.0145585
0.00180052
0.000181152
1.53676e-05
1.13118e-06
7.37385e-08
4.32343e-09
2.30844e-10
1.13382e-11
5.16632e-13
2.20032e-14
8.81764e-16
3.34646e-17
1.20955e-18
4.18471e-20
1.39018e-21
4.4409e-23
1.36368e-24
4.02426e-26
1.1405e-27
3.10554e-29
8.1255e-31
2.04443e-32
4.94901e-34
1.15301e-35
2.58571e-37
5.5868e-39
1.16246e-40
0.39341
0.0904711
0.0145553
0.00179937
0.00018086
1.53493e-05
1.12995e-06
7.36194e-08
4.31186e-09
2.29886e-10
1.12721e-11
5.12755e-13
2.17959e-14
8.71664e-16
3.2987e-17
1.18749e-18