/*--------------------------------*- C++ -*----------------------------------*\
  =========                 |
  \\      /  F ield         | OpenFOAM: The Open Source CFD Toolbox
   \\    /   O peration     | Website:  https://openfoam.org
    \\  /    A nd           | Version:  10
     \\/     M anipulation  |
\*---------------------------------------------------------------------------*/
FoamFile
{
    format      ascii;
    class       volScalarField;
    location    "1";
    object      T;
}
// * * * * * * * * * * * * * * * * * * * * * * * * * * * * * * * * * * * * * //

dimensions      [0 0 0 1 0 0 0];

internalField   nonuniform List<scalar> 
96305
(
0.181315
0.0174037
0.00112575
5.46439e-05
2.11808e-06
6.83104e-08
1.8867e-09
4.55863e-11
9.79672e-13
1.8979e-14
3.35135e-16
5.44472e-18
8.20445e-20
1.15492e-21
1.52849e-23
1.91252e-25
2.27307e-27
2.57537e-29
2.7883e-31
2.88881e-33
2.86639e-35
2.72452e-37
2.48113e-39
2.16481e-41
1.80974e-43
1.45029e-45
1.11396e-47
8.20134e-50
5.7974e-52
3.92772e-54
0.181317
0.0174021
0.0011254
5.46127e-05
2.1165e-06
6.82588e-08
1.88533e-09
4.55487e-11
9.78645e-13
1.89524e-14
3.34499e-16
5.43063e-18
8.17613e-20
1.14981e-21
1.52034e-23
1.90121e-25
2.25952e-27
2.5615e-29
2.77643e-31
2.88087e-33
2.86347e-35
2.72674e-37
2.48782e-39
2.17493e-41
1.82161e-43
1.46209e-45
1.12456e-47
8.28508e-50
5.85742e-52
3.96688e-54
0.181318
0.0173998
0.00112489
5.45656e-05
2.11431e-06
6.82016e-08
1.88423e-09
4.55286e-11
9.78311e-13
1.89474e-14
3.34364e-16
5.4256e-18
8.16084e-20
1.14625e-21
1.51387e-23
1.89211e-25
2.25005e-27
2.55565e-29
2.77833e-31
2.89286e-33
2.88539e-35
2.75588e-37
2.52033e-39
2.20661e-41
1.84883e-43
1.48252e-45
1.13829e-47
8.36502e-50
5.89353e-52
3.97188e-54
0.18132
0.0173917
0.00112313
5.43979e-05
2.1062e-06
6.79119e-08
1.87588e-09
4.5303e-11
9.72973e-13
1.88374e-14
3.32314e-16
5.38955e-18
8.10041e-20
1.13706e-21
1.5025e-23
1.88371e-25
2.25625e-27
2.59377e-29
2.86666e-31
3.04484e-33
3.10523e-35
3.03829e-37
2.85201e-39
2.56848e-41
2.21743e-43
1.83438e-45
1.45032e-47
1.09184e-49
7.84884e-52
5.37932e-54
0.181336
0.0173672
0.00111784
5.33245e-05
3.32316e-06
6.34722e-09
7.29929e-12
7.40197e-15
3.35147e-17
4.61947e-19
6.24208e-21
7.46586e-23
7.67297e-25
6.16228e-27
2.18127e-29
-5.02537e-31
-1.61321e-32
-3.08522e-34
-4.80981e-36
-6.6461e-38
-8.45918e-40
-1.01034e-41
9.44908e-43
2.73184e-44
3.63683e-46
3.7793e-48
1.04722e-50
1.19957e-52
1.14054e-54
9.4911e-57
0.181337
0.0173571
0.00111555
5.31216e-05
3.31063e-06
6.43017e-09
7.55994e-12
6.24279e-15
3.95182e-18
1.99883e-21
8.27704e-25
2.84422e-28
7.74306e-32
-4.59459e-35
-8.35156e-37
-1.01065e-38
-1.16119e-40
-1.2722e-42
-1.32623e-44
-1.32068e-46
-1.27532e-48
-1.21697e-50
1.81432e-49
2.77647e-50
7.77279e-52
1.16685e-53
5.63229e-54
1.00969e-55
1.21628e-57
1.16448e-59
0.181338
0.0173493
0.0011136
5.29034e-05
3.28734e-06
6.35107e-09
7.41601e-12
6.07463e-15
3.82031e-18
1.91835e-21
7.84402e-25
2.63289e-28
7.28282e-32
1.6726e-35
3.26048e-39
5.67206e-43
9.28086e-47
1.33113e-50
-4.30521e-54
-5.06595e-56
-4.00749e-58
-1.44472e-60
1.99595e-57
1.10827e-56
9.52786e-58
2.68108e-59
3.08088e-57
6.9569e-59
9.5558e-61
9.66898e-63
0.181336
0.0173384
0.00111083
5.25791e-05
3.24912e-06
6.18344e-09
7.07636e-12
5.6767e-15
3.50346e-18
1.7278e-21
6.90103e-25
2.2292e-28
5.77304e-32
1.18324e-35
1.88439e-39
2.22359e-43
2.15006e-47
3.19917e-51
8.26003e-55
2.69145e-58
2.51007e-61
1.48697e-64
7.7935e-65
1.70912e-66
2.91687e-65
6.26608e-66
1.52376e-60
3.97925e-62
6.07756e-64
6.47917e-66
0.181335
0.0173217
0.00110651
5.20512e-05
3.18361e-06
5.88106e-09
6.46213e-12
4.96563e-15
2.94981e-18
1.41098e-21
5.44991e-25
1.63673e-28
3.53191e-32
4.76845e-36
3.13617e-40
1.28437e-44
-3.48821e-49
-1.08742e-52
-2.57671e-56
-5.37549e-60
-1.03865e-63
2.74436e-59
1.37048e-58
2.77162e-62
4.07088e-66
-3.94628e-62
3.44126e-56
2.07192e-58
9.77824e-61
4.06875e-63
0.181328
0.0172965
0.00109986
5.12158e-05
3.07619e-06
5.3742e-09
5.44969e-12
3.82949e-15
2.09936e-18
9.03283e-22
2.71131e-25
4.89183e-29
4.65911e-33
2.29811e-37
1.13081e-41
-9.07484e-45
1.81606e-54
-1.7943e-64
1.93781e-69
-2.32927e-73
-3.34327e-70
3.18875e-53
6.80138e-52
6.51486e-55
9.66508e-60
-4.61425e-58
1.11439e-50
1.52513e-53
2.42929e-56
4.66679e-59
0.181317
0.0172604
0.00109015
4.9975e-05
2.91209e-06
4.59913e-09
3.97913e-12
2.29699e-15
9.70797e-19
3.0356e-22
8.46733e-26
2.37169e-29
6.1955e-33
4.6147e-36
3.29575e-39
-2.91642e-40
-1.25854e-48
2.02205e-63
5.32615e-48
1.71395e-46
5.50082e-49
2.27593e-52
1.23033e-51
1.23642e-46
3.76492e-49
8.59436e-52
1.59143e-54
0.181304
0.0172126
0.00107723
4.82958e-05
2.68392e-06
3.55726e-09
2.24216e-12
7.87266e-16
2.26478e-19
2.10063e-22
3.16157e-25
2.8696e-28
1.76838e-31
3.38223e-29
5.9736e-32
-1.5242e-32
-1.67853e-40
3.05034e-58
7.09411e-43
3.46331e-41
1.15283e-43
6.20425e-47
8.21479e-49
1.45089e-43
5.68614e-46
1.597e-48
3.67517e-51
0.181286
0.0171583
0.00106229
4.63357e-05
2.4104e-06
2.4051e-09
7.64046e-13
6.29985e-17
-5.7165e-23
-1.13456e-25
-6.74368e-29
1.01188e-30
-1.13032e-30
4.34481e-20
1.72613e-23
5.25792e-23
-7.58969e-32
-2.02685e-50
6.82579e-37
1.04579e-35
2.0499e-38
1.04927e-41
2.31797e-45
1.5538e-40
7.23942e-43
2.44403e-45
6.30534e-48
0.181273
0.0171087
0.00104861
4.45332e-05
2.15102e-06
1.46455e-09
9.77273e-14
-5.2249e-19
2.26004e-25
3.64706e-13
-4.72404e-18
-5.08718e-14
1.35204e-18
6.98649e-26
-4.37437e-25
5.40606e-25
-8.15209e-31
1.24418e-27
5.44918e-30
4.01734e-33
1.67365e-36
4.07934e-40
2.15589e-37
1.06347e-39
3.74339e-42
1.02696e-44
0.18126
0.0170784
0.00104033
4.34484e-05
1.98459e-06
9.69983e-10
4.90433e-16
-4.37181e-20
1.85374e-16
2.57354e-08
5.77122e-07
4.32293e-06
2.81279e-06
1.5417e-08
3.60066e-11
4.51017e-14
2.8938e-17
1.21646e-20
3.57938e-24
7.52847e-28
1.83321e-31
4.48678e-35
6.03203e-34
2.34219e-36
8.00655e-39
2.41545e-41
0.18126
0.0170786
0.00104033
4.34466e-05
1.96244e-06
8.81608e-10
4.06397e-16
-4.48351e-20
1.30582e-09
0.01958
6.52504
897.662
0.0032318
1.26016e-05
5.07293e-08
1.25663e-10
1.81523e-13
1.66036e-16
1.01538e-19
4.18587e-23
1.16218e-26
2.87016e-30
1.22325e-31
4.83584e-34
1.65948e-36
4.9427e-39
0.181271
0.0171082
0.00104852
4.45239e-05
2.09245e-06
1.17504e-09
6.59818e-15
-7.02449e-20
6.42382e-14
1.21247e-07
-5.00437e-08
-0.000110392
-5.36506e-06
-2.07962e-08
-1.23689e-11
1.11027e-12
1.76783e-16
1.00925e-20
1.27833e-23
6.11395e-27
1.71097e-30
3.0292e-34
1.0323e-34
5.875e-37
2.25485e-39
6.61491e-42
0.181286
0.0171579
0.00106218
4.6321e-05
2.33561e-06
1.92396e-09
3.33825e-13
-1.13399e-18
8.18445e-27
1.04341e-35
-1.29513e-39
1.15516e-39
3.2272e-23
2.86955e-12
9.29456e-17
-2.05689e-14
6.0588e-19
6.82857e-26
-2.16238e-25
1.06017e-23
-1.67159e-30
2.56652e-30
4.87342e-30
2.39906e-32
1.40645e-35
3.14286e-39
1.2102e-37
6.75714e-40
2.46534e-42
6.39664e-45
0.181302
0.017212
0.00107706
4.82756e-05
2.61405e-06
3.02556e-09
1.44421e-12
3.0881e-16
1.49524e-19
3.85355e-22
4.17291e-25
2.03337e-28
8.34124e-26
2.5734e-21
2.27224e-24
-1.4807e-23
-1.13829e-30
-1.0581e-49
1.21075e-39
2.91189e-36
1.0124e-37
1.0548e-40
2.55794e-44
1.61341e-40
8.06953e-43
2.48957e-45
5.18448e-48
0.181317
0.0172595
0.00108997
4.99509e-05
2.85749e-06
4.14557e-09
3.13056e-12
1.48449e-15
5.02585e-19
1.7839e-22
8.99299e-26
7.83566e-29
1.79541e-31
3.51132e-30
5.85983e-33
-6.12906e-32
-2.31415e-39
-3.79624e-59
7.06276e-47
2.41434e-42
4.00761e-43
7.00231e-46
6.97799e-48
2.18757e-43
9.89626e-46
2.52367e-48
3.65132e-51
0.181326
0.0172951
0.00109955
5.11866e-05
3.03656e-06
5.0382e-09
4.75679e-12
3.07491e-15
1.5253e-18
5.46907e-22
1.29125e-25
2.10239e-29
2.57098e-33
2.48831e-35
3.21347e-38
-4.97946e-38
-1.30657e-45
2.12986e-66
1.56868e-53
6.01676e-49
9.5472e-49
3.04381e-51
1.63562e-50
2.65675e-46
1.10704e-48
2.35875e-51
2.54165e-54
0.181351
0.0173227
0.00110642
5.20293e-05
3.15619e-06
5.65053e-09
5.97126e-12
4.39748e-15
2.51357e-18
1.15889e-21
4.14295e-25
1.03246e-28
1.53897e-32
1.1032e-36
3.56092e-41
-3.70599e-43
9.66791e-50
1.25756e-59
1.42557e-64
-2.93357e-70
-3.14205e-72
-3.86048e-64
1.14658e-58
1.78579e-55
5.82463e-57
1.20191e-53
1.87614e-49
7.66103e-52
1.413e-54
1.46627e-57
0.181321
0.0173378
0.00111065
5.25509e-05
3.23034e-06
6.0299e-09
6.74831e-12
5.28633e-15
3.18921e-18
1.53866e-21
5.99816e-25
1.87058e-28
4.53117e-32
8.03371e-36
9.31408e-40
6.45105e-44
5.86526e-48
3.3606e-50
2.95355e-53
1.03784e-56
2.30631e-60
3.66883e-64
3.0557e-67
3.02151e-63
1.50146e-63
3.13603e-59
3.92513e-53
3.08913e-55
1.50123e-57
6.35048e-60
0.181338
0.017347
0.0011133
5.28752e-05
3.27378e-06
6.24558e-09
7.19302e-12
5.8074e-15
3.59824e-18
1.77812e-21
7.12311e-25
2.31858e-28
6.12273e-32
1.31294e-35
2.32311e-39
3.50211e-43
4.52866e-47
5.45518e-51
7.61129e-55
1.24735e-58
1.65353e-62
-3.74449e-65
-6.31563e-67
-3.98664e-67
1.14317e-67
-1.18036e-63
9.45049e-57
8.22667e-59
4.45843e-61
2.33979e-63
0.181337
0.0173565
0.00111534
5.30913e-05
3.30105e-06
6.37001e-09
7.43964e-12
6.09132e-15
3.82304e-18
1.91348e-21
7.80565e-25
2.62556e-28
7.34278e-32
1.72555e-35
3.46028e-39
3.57348e-43
-2.82285e-45
-2.98318e-47
-2.85912e-49
-2.55521e-51
-2.17759e-53
-1.88533e-55
-3.11523e-57
-1.80979e-57
6.91933e-58
6.43218e-59
2.79848e-55
6.38058e-57
9.59379e-59
1.19838e-60
0.181336
0.0173664
0.00111763
5.32972e-05
3.31182e-06
6.36474e-09
7.40939e-12
6.04839e-15
3.77558e-18
1.86618e-21
4.62194e-25
-5.43444e-27
-9.27846e-29
-1.39183e-30
-1.92274e-32
-2.50736e-34
-3.09487e-36
-3.60053e-38
-4.04897e-40
-4.33433e-42
-4.48212e-44
-4.52799e-46
-4.45071e-48
-6.6425e-50
2.26116e-50
6.14087e-52
2.07533e-51
2.80157e-53
3.01642e-55
2.86966e-57
0.18132
0.0173909
0.00112292
5.43711e-05
2.10398e-06
6.77807e-08
1.86982e-09
4.50745e-11
9.65719e-13
1.86374e-14
3.27458e-16
5.28441e-18
7.89328e-20
1.1e-21
1.44134e-23
1.79e-25
2.12123e-27
2.4102e-29
2.6295e-31
2.7521e-33
2.75957e-35
2.6493e-37
2.43528e-39
2.14545e-41
1.81446e-43
1.47532e-45
1.1518e-47
8.61411e-50
6.18449e-52
4.25658e-54
0.181318
0.0173991
0.00112468
5.45378e-05
2.11202e-06
6.80651e-08
1.87792e-09
4.52894e-11
9.70703e-13
1.87378e-14
3.2928e-16
5.31565e-18
7.94615e-20
1.10777e-21
1.45032e-23
1.79455e-25
2.11009e-27
2.36646e-29
2.53642e-31
2.5998e-33
2.54803e-35
2.38802e-37
2.14109e-39
1.83848e-41
1.51296e-43
1.19475e-45
9.06095e-48
6.60602e-50
4.63804e-52
3.13347e-54
0.181317
0.0174014
0.0011252
5.45861e-05
2.11427e-06
6.81246e-08
1.87912e-09
4.53135e-11
9.71166e-13
1.87467e-14
3.29555e-16
5.32321e-18
7.96619e-20
1.11232e-21
1.45874e-23
1.80682e-25
2.12445e-27
2.37974e-29
2.54549e-31
2.6034e-33
2.54749e-35
2.38612e-37
2.14087e-39
1.84173e-41
1.5208e-43
1.2063e-45
9.2015e-48
6.75216e-50
4.77447e-52
3.25238e-54
0.181315
0.017403
0.00112554
5.46167e-05
2.11581e-06
6.81749e-08
1.88047e-09
4.53516e-11
9.72243e-13
1.87755e-14
3.3023e-16
5.33951e-18
7.99906e-20
1.1184e-21
1.46845e-23
1.82107e-25
2.14264e-27
2.40075e-29
2.56791e-31
2.62607e-33
2.57004e-35
2.40868e-37
2.16347e-39
1.86403e-41
1.54178e-43
1.22578e-45
9.37164e-48
6.89563e-50
4.89197e-52
3.34429e-54
0.181367
0.0177503
0.00119583
6.17891e-05
2.60179e-06
9.28228e-08
2.88284e-09
7.95042e-11
1.97704e-12
4.48756e-14
9.39062e-16
1.82671e-17
3.32661e-19
5.70573e-21
9.26584e-23
1.43102e-24
2.10931e-26
2.97524e-28
4.02301e-30
5.21953e-32
6.50105e-34
7.77346e-36
8.92303e-38
9.83234e-40
1.04007e-41
1.05655e-43
1.03083e-45
9.66552e-48
8.72315e-50
7.56938e-52
0.181366
0.0177517
0.00119625
6.18448e-05
2.60641e-06
9.30951e-08
2.89505e-09
7.99489e-11
1.99087e-12
4.52547e-14
9.48402e-16
1.8478e-17
3.3707e-19
5.79253e-21
9.42831e-23
1.46021e-24
2.15984e-26
3.05934e-28
4.15664e-30
5.42123e-32
6.78954e-34
8.16364e-36
9.42291e-38
1.04388e-39
1.10975e-41
1.13249e-43
1.10973e-45
1.04452e-47
9.45908e-50
8.23295e-52
0.181363
0.017755
0.0011972
6.19679e-05
2.61662e-06
9.36938e-08
2.92195e-09
8.09462e-11
2.02273e-12
4.61548e-14
9.71203e-16
1.9003e-17
3.48201e-19
6.01303e-21
9.84127e-23
1.53413e-24
2.28697e-26
3.2692e-28
4.48772e-30
5.91784e-32
7.49674e-34
9.1184e-36
1.06467e-37
1.19265e-39
1.28159e-41
1.32072e-43
1.30595e-45
1.23944e-47
1.1308e-49
9.90723e-52
0.181356
0.01776
0.00119884
6.22062e-05
2.63668e-06
9.4739e-08
2.96502e-09
8.24244e-11
2.06674e-12
4.73135e-14
9.98604e-16
1.9589e-17
3.59664e-19
6.22108e-21
1.01993e-22
1.59389e-24
2.38557e-26
3.43026e-28
4.74449e-30
6.31079e-32
8.06751e-34
9.904e-36
1.16703e-37
1.31892e-39
1.42878e-41
1.48268e-43
1.47416e-45
1.40518e-47
1.28654e-49
1.13104e-51
0.181349
0.0177637
0.00120072
6.25693e-05
5.13135e-06
2.17442e-08
5.75958e-11
1.07368e-13
1.97562e-16
1.21917e-18
1.84615e-20
2.90758e-22
4.32086e-24
6.03527e-26
7.91578e-28
9.60876e-30
1.03474e-31
9.2498e-34
5.56438e-36
-9.35052e-39
-1.03502e-39
-2.1866e-41
-3.39891e-43
-4.66346e-45
2.81097e-45
1.02521e-46
4.80686e-49
7.53533e-51
9.55556e-53
1.05165e-54
0.18134
0.0177691
0.00120252
6.28197e-05
5.17208e-06
2.20992e-08
5.89184e-11
1.08003e-13
1.45099e-16
1.49804e-19
1.23021e-22
8.24634e-26
4.60569e-29
2.15974e-32
4.7971e-36
-5.73201e-38
-8.33555e-40
-1.09821e-41
-1.38161e-43
-1.66316e-45
-1.93086e-47
-2.19791e-49
-2.4357e-51
-2.61263e-53
6.38776e-53
1.92747e-53
1.24031e-52
3.22671e-54
5.42581e-56
7.19319e-58
0.181332
0.0177736
0.00120379
6.29801e-05
5.19708e-06
2.2352e-08
6.01395e-11
1.11525e-13
1.5198e-16
1.59518e-19
1.33257e-22
9.06689e-26
5.11474e-29
2.43316e-32
9.97426e-36
3.6341e-39
1.22301e-42
3.88994e-46
1.14856e-49
2.96597e-53
-1.37261e-57
-8.52898e-59
-9.05981e-61
4.39694e-64
2.50849e-60
4.18004e-60
4.57848e-56
1.57919e-57
3.19006e-59
4.76971e-61
0.18132
0.0177764
0.00120465
6.30817e-05
5.21185e-06
2.25028e-08
6.09595e-11
1.14311e-13
1.584e-16
1.6992e-19
1.45381e-22
1.01019e-25
5.7657e-29
2.73167e-32
1.09384e-35
3.83944e-39
1.24956e-42
3.94331e-46
1.17781e-49
3.14908e-53
7.46764e-57
1.60312e-60
3.16281e-64
5.66497e-68
1.62487e-66
3.16749e-66
2.91622e-59
1.15845e-60
2.59544e-62
4.06689e-64
0.181306
0.017777
0.0012049
6.30941e-05
5.21086e-06
2.24964e-08
6.11291e-11
1.15726e-13
1.63421e-16
1.80322e-19
1.59377e-22
1.13842e-25
6.56591e-29
3.02673e-32
1.09801e-35
3.17023e-39
9.77922e-44
4.58033e-50
1.2913e-53
1.06702e-56
1.82151e-61
1.0791e-58
5.14682e-58
1.07624e-61
1.15839e-65
-1.69535e-65
2.06075e-59
1.91872e-61
1.33921e-63
8.27987e-66
0.181284
0.0177738
0.00120413
6.29566e-05
5.18314e-06
2.22061e-08
5.99978e-11
1.13844e-13
1.63518e-16
1.86327e-19
1.70732e-22
1.24564e-25
7.06155e-29
2.98066e-32
8.75275e-36
3.32859e-39
1.54139e-46
-2.2093e-60
1.65716e-65
1.76834e-68
4.60453e-67
5.65169e-53
6.93408e-52
4.98396e-55
8.04037e-60
-1.54726e-60
5.29425e-54
1.63613e-56
4.5069e-59
1.25253e-61
0.181256
0.0177648
0.00120185
6.25896e-05
5.1129e-06
2.14381e-08
5.65266e-11
1.05479e-13
1.52607e-16
1.81001e-19
1.76216e-22
1.38842e-25
8.73011e-29
4.26641e-32
1.48566e-35
1.01903e-39
-1.20276e-44
2.24676e-54
1.16468e-47
3.47584e-46
8.45495e-49
2.94326e-52
2.23484e-54
2.2861e-49
4.52706e-52
5.07984e-55
3.73166e-58
0.181222
0.0177494
0.0011976
6.19217e-05
4.98506e-06
2.00031e-08
4.97265e-11
8.79651e-14
1.2771e-16
1.68461e-19
1.9623e-22
1.77963e-25
1.17142e-28
1.62743e-27
4.24582e-30
-1.81847e-30
1.97813e-36
1.62644e-49
2.85103e-42
1.85129e-40
4.61717e-43
1.94559e-46
3.41788e-50
4.53089e-46
1.56109e-48
3.81622e-51
6.62876e-54
0.181186
0.0177281
0.00119167
6.09862e-05
4.80182e-06
1.79064e-08
3.96858e-11
1.17761e-13
2.14593e-18
3.53166e-23
1.48643e-26
2.18562e-29
1.19171e-28
2.62379e-18
9.46184e-22
8.7108e-22
5.36817e-28
-6.66279e-44
1.76117e-35
1.41131e-34
1.84347e-37
6.6635e-41
1.14576e-44
6.26544e-43
2.95328e-45
9.25651e-48
2.21656e-50
0.181155
0.0177067
0.00118563
6.00233e-05
4.60727e-06
1.56646e-08
2.9062e-11
5.89774e-14
7.29653e-20
4.94148e-12
2.37482e-13
-1.15357e-12
3.48296e-17
-5.14485e-20
-1.18968e-22
6.09745e-23
-4.82082e-29
4.25845e-26
1.23209e-28
6.99212e-32
1.95258e-35
3.05692e-39
9.31368e-40
4.39318e-42
1.45549e-44
3.83884e-47
0.181134
0.0176926
0.00118174
5.94085e-05
4.4762e-06
1.41659e-08
2.26742e-11
3.06125e-14
1.3953e-11
1.05008e-06
0.000126293
0.0422744
1.5789e-05
2.57414e-08
3.7075e-11
2.2129e-13
2.97067e-16
1.83062e-19
7.79533e-23
2.28949e-26
4.58889e-30
6.01599e-34
2.76367e-36
9.55005e-39
2.9876e-41
8.60696e-44
0.181136
0.0176928
0.00118174
5.94062e-05
4.46189e-06
1.39101e-08
2.15878e-11
2.66326e-14
2.8441e-05
3.7667
1335.53
242820
1.22038
0.0029707
8.75016e-06
1.69419e-08
1.95001e-11
1.4036e-14
6.59464e-18
2.00726e-21
3.86302e-25
4.75364e-29
4.52654e-34
1.52529e-36
4.63352e-39
1.29214e-41
0.181154
0.0177064
0.00118556
6.00135e-05
4.56813e-06
1.49239e-08
2.54386e-11
3.85053e-14
1.11744e-09
4.97027e-06
8.02556e-06
0.00360932
1.20552e-05
-8.92075e-09
-1.23676e-11
3.07767e-13
1.34447e-16
1.76321e-20
2.62527e-23
1.76647e-26
5.49733e-30
8.78564e-34
3.67206e-37
1.93775e-39
7.13094e-42
2.16463e-44
0.181186
0.0177281
0.00119159
6.09737e-05
4.75294e-06
1.69353e-08
3.44894e-11
8.43496e-14
8.18129e-20
-8.22866e-33
6.69085e-39
2.21978e-31
1.17191e-17
1.61615e-11
2.1657e-14
-7.30533e-13
1.23351e-16
-1.44602e-20
-2.42146e-22
2.50924e-24
-8.60896e-30
-4.85471e-30
3.48635e-29
8.52885e-32
4.19017e-35
7.85731e-39
4.20125e-40
2.43243e-42
9.30025e-45
2.80665e-47
0.181221
0.017749
0.00119749
6.19067e-05
4.94209e-06
1.9158e-08
4.52758e-11
7.61629e-14
1.06814e-16
1.42399e-19
1.2998e-22
5.40698e-26
-5.95779e-25
1.92812e-19
2.17377e-22
-2.61376e-23
1.70436e-27
5.52301e-44
1.7333e-39
3.01196e-35
3.44887e-37
2.56117e-40
5.21825e-44
5.27989e-43
2.78454e-45
1.01004e-47
2.78364e-50
0.181256
0.0177646
0.00120173
6.25745e-05
5.08199e-06
2.08537e-08
5.35561e-11
9.76152e-14
1.412e-16
1.74138e-19
1.83443e-22
1.61572e-25
1.14811e-28
1.15158e-28
6.09207e-31
-2.84029e-31
9.30467e-37
-1.04898e-51
6.82519e-46
2.13931e-41
1.07977e-42
1.29599e-45
3.13228e-49
5.90028e-46
2.75257e-48
8.16412e-51
1.8543e-53
0.181291
0.0177736
0.001204
6.29428e-05
5.16299e-06
2.18527e-08
5.83617e-11
1.09906e-13
1.58186e-16
1.82684e-19
1.70254e-22
1.25712e-25
7.18687e-29
3.06991e-32
9.08746e-36
-3.24208e-38
-4.88619e-42
9.91849e-59
4.51264e-52
9.98756e-48
2.27023e-48
4.54071e-51
2.1316e-53
4.59518e-49
1.89925e-51
4.63391e-54
8.38946e-57
0.181305
0.0177777
0.00120491
6.30822e-05
5.1982e-06
2.23031e-08
6.03531e-11
1.14267e-13
1.62389e-16
1.81463e-19
1.62679e-22
1.17063e-25
6.66814e-29
2.91573e-32
9.31873e-36
4.03765e-39
3.14477e-45
1.09275e-55
5.46797e-62
1.18566e-63
-1.83119e-68
-9.42274e-62
1.7162e-56
1.21371e-54
8.98769e-57
1.31562e-56
2.23705e-52
1.06106e-54
2.91264e-57
6.4336e-60
0.181312
0.0177754
0.0012046
6.30727e-05
5.20372e-06
2.24028e-08
6.06573e-11
1.14046e-13
1.59073e-16
1.72324e-19
1.49092e-22
1.04414e-25
5.95745e-29
2.77523e-32
1.06255e-35
3.43598e-39
1.0223e-42
3.20316e-46
1.03565e-49
2.90686e-53
6.61076e-57
1.18903e-60
1.63702e-64
1.51286e-62
3.17963e-63
1.46094e-62
9.72526e-57
1.35965e-58
1.1787e-60
8.31798e-63
0.181331
0.0177727
0.00120365
6.29663e-05
5.19272e-06
2.23066e-08
6.00793e-11
1.11731e-13
1.53031e-16
1.61709e-19
1.36012e-22
9.2943e-26
5.23828e-29
2.46856e-32
9.93368e-36
3.53796e-39
1.17073e-42
3.69232e-46
1.07669e-49
2.78043e-53
6.26828e-57
1.23706e-60
2.02614e-64
-9.66779e-68
-2.44463e-70
2.59343e-67
1.45458e-60
-3.2127e-61
3.40168e-62
3.22477e-63
0.18134
0.0177691
0.00120246
6.28103e-05
5.16983e-06
2.21107e-08
5.90914e-11
1.08676e-13
1.46611e-16
1.52037e-19
1.25327e-22
8.41725e-26
4.69535e-29
2.21632e-32
9.03992e-36
3.27202e-39
1.06173e-42
4.51074e-47
-3.3599e-48
-3.89548e-50
-4.21674e-52
-4.50557e-54
-4.76767e-56
-4.94033e-58
-4.88826e-60
1.16851e-61
-1.36009e-55
-4.76824e-57
3.23216e-58
1.84406e-59
0.181349
0.0177636
0.00120067
6.25597e-05
5.13342e-06
2.17794e-08
5.7615e-11
1.0473e-13
1.3936e-16
1.4233e-19
1.14873e-22
6.07021e-26
-2.61909e-28
-5.32301e-30
-8.81576e-32
-1.3557e-33
-2.00376e-35
-2.81411e-37
-3.76817e-39
-4.82405e-41
-5.93061e-43
-7.06984e-45
-8.13303e-47
-9.07609e-49
-9.70904e-51
-1.0043e-52
-4.20367e-50
-1.06765e-52
5.30217e-54
1.3902e-55
0.181356
0.0177598
0.00119879
6.21977e-05
2.63581e-06
9.46774e-08
2.9615e-09
8.22664e-11
2.0606e-12
4.7107e-14
9.92375e-16
1.94233e-17
3.55662e-19
6.13202e-21
1.00162e-22
1.55884e-24
2.32272e-26
3.32417e-28
4.57503e-30
6.05304e-32
7.69486e-34
9.39247e-36
1.10107e-37
1.24002e-39
1.34271e-41
1.39822e-43
1.40108e-45
1.35129e-47
1.25599e-49
1.12335e-51
0.181362
0.0177548
0.00119713
6.19587e-05
2.61572e-06
9.36307e-08
2.91853e-09
8.07919e-11
2.01688e-12
4.59595e-14
9.65442e-16
1.88519e-17
3.44559e-19
5.93257e-21
9.6762e-23
1.50263e-24
2.23085e-26
3.17496e-28
4.33809e-30
5.69401e-32
7.17937e-34
8.69383e-36
1.0115e-37
1.13087e-39
1.21545e-41
1.2566e-43
1.25013e-45
1.19722e-47
1.10501e-49
9.8145e-52
0.181366
0.0177516
0.00119621
6.18367e-05
2.60559e-06
9.3036e-08
2.89175e-09
7.97998e-11
1.98522e-12
4.50676e-14
9.43031e-16
1.83344e-17
3.33671e-19
5.71785e-21
9.27812e-23
1.43191e-24
2.10988e-26
2.9766e-28
4.02774e-30
5.23203e-32
6.52666e-34
7.82132e-36
9.00513e-38
9.96545e-40
1.06058e-41
1.08569e-43
1.06973e-45
1.01461e-47
9.27654e-50
8.16765e-52
0.181367
0.0177501
0.00119578
6.17811e-05
2.60094e-06
9.27622e-08
2.87951e-09
7.93559e-11
1.97143e-12
4.4691e-14
9.33701e-16
1.81288e-17
3.29364e-19
5.6344e-21
9.12185e-23
1.40409e-24
2.06221e-26
2.89789e-28
3.90358e-30
5.04565e-32
6.26322e-34
7.4675e-36
8.55626e-38
9.42422e-40
9.98165e-42
1.01743e-43
9.9806e-46
9.42758e-48
8.58652e-50
7.53335e-52
0.181287
0.0176371
0.00117332
5.95038e-05
2.44686e-06
8.49156e-08
2.55806e-09
6.82988e-11
1.64241e-12
3.60301e-14
7.28624e-16
1.3702e-17
2.41389e-19
4.00921e-21
6.31239e-23
9.46492e-25
1.3566e-26
1.86383e-28
2.45921e-30
3.11946e-32
3.80685e-34
4.47002e-36
5.05088e-38
5.49262e-40
5.74931e-42
5.79425e-44
5.62343e-46
5.25893e-48
4.7454e-50
4.13052e-52
0.181288
0.0176374
0.0011734
5.95173e-05
2.44815e-06
8.50002e-08
2.56225e-09
6.84645e-11
1.64787e-12
3.61863e-14
7.32604e-16
1.37938e-17
2.43344e-19
4.04835e-21
6.38697e-23
9.60153e-25
1.38068e-26
1.90448e-28
2.52446e-30
3.21865e-32
3.94886e-34
4.66226e-36
5.29754e-38
5.7918e-40
6.09349e-42
6.17085e-44
6.01619e-46
5.64943e-48
5.11697e-50
4.46932e-52
0.181288
0.0176381
0.00117359
5.9545e-05
2.45078e-06
8.51749e-08
2.57088e-09
6.88053e-11
1.65922e-12
3.65153e-14
7.41091e-16
1.3992e-17
2.47608e-19
4.13424e-21
6.55163e-23
9.90439e-25
1.43427e-26
1.99529e-28
2.67077e-30
3.44153e-32
4.26911e-34
5.09721e-36
5.8574e-38
6.47466e-40
6.88459e-42
7.04178e-44
6.93117e-46
6.56726e-48
5.9984e-50
5.28057e-52
0.181289
0.0176388
0.0011738
5.95809e-05
2.45447e-06
8.5357e-08
2.57959e-09
6.91615e-11
1.67149e-12
3.68778e-14
7.50486e-16
1.42085e-17
2.52147e-19
4.22296e-21
6.7174e-23
1.02069e-24
1.48851e-26
2.08988e-28
2.82829e-30
3.68882e-32
4.63386e-34
5.60275e-36
6.51792e-38
7.29087e-40
7.83776e-42
8.09505e-44
8.03579e-46
7.67035e-48
7.04971e-50
6.24096e-52
0.18129
0.0176392
0.00117389
5.96169e-05
4.76505e-06
1.92297e-08
4.79031e-11
8.37937e-14
1.48617e-16
9.27329e-19
1.35973e-20
2.04554e-22
2.89394e-24
3.84009e-26
4.77212e-28
5.46886e-30
5.49212e-32
4.37521e-34
1.8167e-36
-2.25157e-38
-7.60226e-40
-1.39752e-41
-2.06413e-43
5.53772e-44
3.97129e-45
7.39375e-47
2.99871e-49
4.56358e-51
5.71589e-53
6.26538e-55
0.18129
0.0176393
0.001174
5.96443e-05
4.77339e-06
1.93491e-08
4.84315e-11
8.3217e-14
1.05259e-16
1.02986e-19
8.08214e-23
5.229e-26
2.85057e-29
1.31718e-32
2.51269e-36
-3.97597e-38
-5.58209e-40
-7.14919e-42
-8.75829e-44
-1.03035e-45
-1.17347e-47
-1.30557e-49
-1.42517e-51
6.06153e-52
5.50378e-52
2.70697e-53
9.17752e-53
2.29217e-54
3.78592e-56
4.97742e-58
0.18129
0.0176386
0.0011739
5.96474e-05
4.77789e-06
1.94398e-08
4.89902e-11
8.50614e-14
1.09167e-16
1.08799e-19
8.71859e-23
5.7608e-26
3.20098e-29
1.52355e-32
6.34621e-36
2.37877e-39
8.29456e-43
2.75612e-46
8.65027e-50
2.45036e-53
1.25686e-57
-5.20998e-59
-5.55882e-61
2.1085e-59
1.19489e-58
1.27101e-59
3.95983e-56
1.33528e-57
2.69969e-59
4.08438e-61
0.181288
0.0176363
0.00117338
5.95976e-05
4.77482e-06
1.94744e-08
4.93893e-11
8.67764e-14
1.13501e-16
1.16094e-19
9.59374e-23
6.54102e-26
3.73337e-29
1.80797e-32
7.56931e-36
2.83756e-39
1.01152e-42
3.62323e-46
1.28323e-49
4.24102e-53
1.27456e-56
3.47597e-60
8.57615e-64
5.74025e-66
9.83839e-65
1.66071e-65
2.67696e-59
1.08414e-60
2.51281e-62
4.13758e-64
0.181282
0.0176312
0.00117213
5.94553e-05
4.75834e-06
1.94017e-08
4.94232e-11
8.79538e-14
1.17911e-16
1.25203e-19
1.08372e-22
7.75449e-26
4.61559e-29
2.28943e-32
9.49301e-36
3.36189e-39
1.53444e-43
1.04001e-49
2.98243e-53
1.92107e-56
7.03097e-61
2.83909e-62
1.18946e-62
1.63141e-66
2.27223e-70
-4.8644e-69
2.97409e-62
1.04833e-63
2.48256e-65
4.16293e-67
0.181273
0.0176218
0.00116979
5.91667e-05
4.71948e-06
1.91313e-08
4.86953e-11
8.76064e-14
1.21086e-16
1.35619e-19
1.25829e-22
9.68957e-26
6.16088e-29
3.18697e-32
1.28394e-35
7.21567e-39
7.29119e-46
-1.42894e-59
4.65332e-66
2.56583e-67
-6.12989e-71
2.81062e-56
1.76109e-56
2.68457e-60
1.90513e-65
-1.17672e-63
2.11966e-57
9.74585e-60
3.8475e-62
1.46401e-64
0.181261
0.0176066
0.00116588
5.8667e-05
4.64635e-06
1.85354e-08
4.65515e-11
8.3814e-14
1.19682e-16
1.44341e-19
1.48428e-22
1.29162e-25
9.38908e-29
5.53528e-32
2.40219e-35
5.69375e-39
9.8995e-45
1.28901e-57
1.68054e-50
1.92576e-50
9.53883e-54
9.57439e-58
6.07424e-58
2.36269e-53
4.03683e-56
7.22723e-59
1.11061e-61
0.181242
0.0175852
0.0011602
5.7915e-05
4.52942e-06
1.7478e-08
4.21451e-11
7.33417e-14
1.05303e-16
1.4058e-19
1.68977e-22
1.49575e-25
8.70693e-29
3.35794e-31
9.01821e-34
-5.80821e-34
1.32928e-38
2.86548e-50
4.44016e-44
3.30991e-44
2.21246e-47
3.38567e-51
4.45223e-55
3.37258e-51
1.06863e-53
2.09172e-56
4.84592e-59
0.181226
0.0175592
0.00115325
5.69617e-05
4.37243e-06
1.59307e-08
3.49029e-11
1.02858e-13
1.81804e-18
2.83112e-23
1.14642e-26
7.55222e-30
4.65308e-32
5.78133e-22
1.78306e-25
2.18181e-25
5.39529e-32
-3.74687e-47
6.49709e-36
4.55823e-38
2.02638e-41
3.41938e-45
3.20571e-49
6.8304e-48
3.70925e-50
1.30341e-52
3.79623e-55
0.181207
0.0175347
0.00114663
5.60335e-05
4.21126e-06
1.42402e-08
2.64581e-11
5.09109e-14
9.62934e-24
4.44519e-15
6.54967e-17
-2.9399e-16
3.92838e-21
7.70777e-24
2.1313e-24
3.16991e-26
-7.88646e-32
3.55722e-29
2.35898e-32
6.82155e-36
1.08954e-39
1.06901e-43
1.31165e-44
6.90372e-47
2.69188e-49
9.89178e-52
0.181196
0.0175198
0.00114255
5.5461e-05
4.10526e-06
1.31055e-08
2.13519e-11
2.80738e-14
1.80158e-15
2.77784e-09
5.42459e-08
1.33483e-05
2.66059e-09
4.62343e-12
7.39105e-15
4.94022e-17
5.19415e-20
2.29683e-23
6.55422e-27
1.28364e-30
1.70605e-34
1.54764e-38
6.80507e-41
2.84007e-43
1.09067e-45
3.89827e-48
0.181197
0.0175198
0.00114251
5.54578e-05
4.09371e-06
1.29015e-08
2.04559e-11
2.49533e-14
3.47392e-09
0.00185403
0.859775
120.722
0.000403289
8.19362e-07
2.19621e-09
3.58977e-12
3.19445e-15
1.63758e-18
5.15565e-22
1.02245e-25
1.38122e-29
1.30582e-33
1.26321e-38
5.14401e-41
1.92295e-43
6.67457e-46
0.181207
0.0175345
0.00114653
5.60229e-05
4.1798e-06
1.36554e-08
2.344e-11
3.3953e-14
1.6357e-13
9.30146e-09
3.15967e-09
9.66503e-07
-5.15324e-09
-9.58876e-13
2.93726e-16
5.26794e-17
3.26484e-20
5.98049e-24
3.65259e-27
1.33018e-30
2.71624e-34
3.33954e-38
9.44369e-42
6.46177e-44
3.13482e-46
1.26639e-48
0.181223
0.0175585
0.00115312
5.69451e-05
4.33276e-06
1.51752e-08
3.06765e-11
7.17886e-14
5.74368e-20
2.63569e-32
4.72148e-39
8.36387e-37
1.60594e-21
2.08864e-15
4.68573e-18
-1.59393e-16
-5.06834e-20
6.72866e-24
3.30935e-27
2.97532e-27
-1.28479e-33
1.13921e-30
1.13629e-32
9.51468e-36
2.78849e-39
4.00525e-43
1.00236e-44
8.11461e-47
4.36577e-49
1.86282e-51
0.181244
0.0175845
0.00116006
5.78961e-05
4.49386e-06
1.68356e-08
3.89018e-11
6.41572e-14
8.61652e-17
1.11717e-19
8.68051e-23
2.21136e-26
-2.24821e-28
3.58946e-23
3.42113e-26
-3.46033e-26
-1.14709e-31
-3.23775e-45
3.11242e-40
1.38585e-38
3.83775e-41
1.58458e-44
2.48028e-48
1.11367e-47
8.71702e-50
4.57716e-52
1.79058e-54
0.181261
0.0176062
0.00116573
5.86483e-05
4.61966e-06
1.8085e-08
4.45352e-11
7.91207e-14
1.13926e-16
1.43614e-19
1.61362e-22
1.57176e-25
1.26489e-28
3.17421e-32
1.08702e-34
-2.99398e-35
5.47354e-39
2.10098e-53
7.88611e-49
4.86362e-45
6.74166e-47
4.44274e-50
7.8215e-54
8.97548e-51
6.03522e-53
2.73843e-55
7.88779e-58
0.18128
0.0176223
0.00116967
5.91498e-05
4.70091e-06
1.88432e-08
4.75634e-11
8.55068e-14
1.19792e-16
1.38513e-19
1.3418e-22
1.08102e-25
7.17407e-29
3.83793e-32
1.53646e-35
7.26057e-39
1.09182e-46
1.24763e-61
3.03207e-56
6.12839e-52
5.02489e-53
5.27038e-56
1.14287e-57
7.73178e-54
2.19558e-56
5.78805e-59
1.33074e-61
0.181275
0.0176308
0.00117205
5.94378e-05
4.74619e-06
1.9221e-08
4.88142e-11
8.71065e-14
1.18165e-16
1.28169e-19
1.14102e-22
8.40597e-26
5.12418e-29
2.56666e-32
1.03779e-35
6.40899e-39
9.27245e-45
5.21227e-55
1.04595e-61
1.27615e-63
-3.17289e-72
3.45446e-63
1.48584e-60
1.36795e-59
6.16346e-62
1.89328e-61
1.17644e-55
7.59888e-58
3.22387e-60
1.22918e-62
0.181288
0.0176344
0.00117323
5.95839e-05
4.76592e-06
1.93624e-08
4.90553e-11
8.64602e-14
1.14059e-16
1.18286e-19
9.9432e-23
6.89556e-26
3.98498e-29
1.93524e-32
7.99676e-36
2.91146e-39
1.00681e-42
3.70948e-46
1.42557e-49
4.60639e-53
1.1227e-56
2.02847e-60
2.75487e-64
4.97018e-68
7.7593e-69
3.24919e-66
4.58406e-60
9.88549e-62
1.60292e-63
2.58043e-65
0.18129
0.0176382
0.00117373
5.96274e-05
4.77134e-06
1.93659e-08
4.87931e-11
8.49294e-14
1.09618e-16
1.10162e-19
8.91272e-23
5.9437e-26
3.3232e-29
1.58302e-32
6.55919e-36
2.44006e-39
8.53481e-43
2.91493e-46
9.57047e-50
2.91134e-53
8.06568e-57
2.02666e-60
4.5308e-64
8.08266e-69
-2.81931e-69
-6.18309e-66
3.40033e-58
3.12953e-59
1.13874e-60
2.74336e-62
0.181291
0.017639
0.00117389
5.96296e-05
4.76868e-06
1.92971e-08
4.83164e-11
8.31637e-14
1.05548e-16
1.03768e-19
8.18829e-23
5.32196e-26
2.91094e-29
1.36563e-32
5.61403e-36
2.0714e-39
6.90111e-43
3.59293e-47
-2.13742e-48
-2.45449e-50
-2.61336e-52
-2.75484e-54
-2.89722e-56
-2.97192e-58
-2.94615e-60
-1.01028e-61
1.9718e-54
1.25199e-55
3.29635e-57
6.2647e-59
0.181291
0.0176389
0.00117378
5.96014e-05
4.76142e-06
1.91953e-08
4.77315e-11
8.13781e-14
1.01982e-16
9.86961e-20
7.59067e-23
3.60608e-26
-2.08406e-28
-3.9531e-30
-6.29411e-32
-9.44356e-34
-1.34654e-35
-1.8302e-37
-2.39201e-39
-2.98986e-41
-3.6065e-43
-4.21213e-45
-4.79235e-47
-5.23906e-49
-5.59135e-51
-5.71807e-53
2.18358e-50
8.07912e-52
1.40952e-53
1.95741e-55
0.181289
0.0176384
0.00117369
5.9566e-05
2.45316e-06
8.52736e-08
2.57535e-09
6.89873e-11
1.66527e-12
3.6684e-14
7.45059e-16
1.40723e-17
2.49052e-19
4.15809e-21
6.59171e-23
9.97803e-25