/*--------------------------------*- C++ -*----------------------------------*\
  =========                 |
  \\      /  F ield         | OpenFOAM: The Open Source CFD Toolbox
   \\    /   O peration     | Website:  https://openfoam.org
    \\  /    A nd           | Version:  10
     \\/     M anipulation  |
\*---------------------------------------------------------------------------*/
FoamFile
{
    format      ascii;
    class       volScalarField;
    location    "1.5";
    object      T;
}
// * * * * * * * * * * * * * * * * * * * * * * * * * * * * * * * * * * * * * //

dimensions      [0 0 0 1 0 0 0];

internalField   nonuniform List<scalar> 
96305
(
0.259242
0.0366336
0.00351336
0.000253341
1.45898e-05
6.98657e-07
2.86231e-08
1.02463e-09
3.25807e-11
9.32611e-13
2.42985e-14
5.81622e-16
1.2894e-17
2.6664e-19
5.17646e-21
9.48718e-23
1.64918e-24
2.72892e-26
4.30884e-28
6.50122e-30
9.38113e-32
1.29495e-33
1.71027e-35
2.16122e-37
2.6133e-39
3.02591e-41
3.35455e-43
3.56073e-45
3.62498e-47
3.53272e-49
0.259246
0.0366304
0.0035123
0.000253201
1.45791e-05
6.98128e-07
2.86021e-08
1.02378e-09
3.25465e-11
9.31308e-13
2.42527e-14
5.80128e-16
1.28498e-17
2.65469e-19
5.14905e-21
9.43144e-23
1.63942e-24
2.71432e-26
4.29063e-28
6.4835e-30
9.37173e-32
1.29602e-33
1.71488e-35
2.1713e-37
2.63061e-39
3.05107e-41
3.38764e-43
3.599e-45
3.66507e-47
3.57069e-49
0.259248
0.036626
0.00351083
0.000253
1.45652e-05
6.97596e-07
2.85875e-08
1.02338e-09
3.25367e-11
9.31091e-13
2.42434e-14
5.79598e-16
1.28259e-17
2.64649e-19
5.12722e-21
9.38644e-23
1.63257e-24
2.70814e-26
4.29359e-28
6.51051e-30
9.44351e-32
1.30988e-33
1.73732e-35
2.20299e-37
2.66977e-39
3.09289e-41
3.42754e-43
3.63161e-45
3.68484e-47
3.57139e-49
0.259252
0.0366091
0.00350528
0.000252204
1.45082e-05
6.9429e-07
2.84344e-08
1.01697e-09
3.23051e-11
9.23832e-13
2.4039e-14
5.74242e-16
1.26938e-17
2.6168e-19
5.07058e-21
9.30841e-23
1.63019e-24
2.73631e-26
4.40958e-28
6.82011e-30
1.01146e-31
1.43729e-33
1.95678e-35
2.55244e-37
3.18738e-39
3.80957e-41
4.34638e-43
4.71447e-45
4.87685e-47
4.80372e-49
0.259287
0.0365607
0.00348976
0.000247421
2.2712e-05
9.45884e-08
2.36753e-10
4.69938e-13
2.39919e-15
4.59703e-17
9.89803e-19
1.9545e-20
3.50427e-22
5.65372e-24
7.988e-26
9.08971e-28
5.48033e-30
-9.39569e-32
-4.65905e-33
-1.2348e-34
-2.66048e-36
-5.09725e-38
9.58322e-39
3.95044e-40
7.59818e-42
1.1391e-43
4.63705e-46
7.5972e-48
1.0334e-49
1.23083e-51
0.259291
0.0365399
0.00348257
0.000246468
2.2622e-05
9.57765e-08
2.45622e-10
4.4111e-13
6.04913e-16
6.60297e-19
5.88112e-22
4.33866e-25
2.67397e-28
1.17674e-31
-4.04469e-34
-8.67799e-36
-1.53327e-37
-2.57119e-39
-4.09721e-41
-6.22174e-43
-9.11968e-45
-1.30479e-46
3.99325e-45
8.46897e-46
3.42553e-47
7.42369e-49
3.60407e-49
9.22595e-51
1.58887e-52
2.1748e-54
0.259295
0.0365245
0.00347675
0.000245489
2.24672e-05
9.46173e-08
2.41002e-10
4.29233e-13
5.84716e-16
6.33655e-19
5.57338e-22
4.01304e-25
2.37628e-28
1.16687e-31
4.86304e-35
1.81063e-38
6.35771e-42
2.05752e-45
5.4736e-49
-3.75553e-52
-6.36404e-54
1.91952e-56
9.28045e-53
7.07576e-52
8.78077e-53
3.56889e-54
2.83537e-52
9.14393e-54
1.79415e-55
2.59266e-57
0.259296
0.0365029
0.00346836
0.000244016
2.22108e-05
9.21577e-08
2.30088e-10
4.01353e-13
5.36535e-16
5.71055e-19
4.90704e-22
3.40189e-25
1.88795e-28
8.29142e-32
2.83608e-35
7.24432e-39
1.53903e-42
5.1438e-46
3.03567e-49
2.06411e-52
3.59774e-55
2.6561e-58
1.27044e-59
2.32558e-61
5.57094e-60
1.74349e-60
1.99276e-55
7.47584e-57
1.63359e-58
2.48717e-60
0.259298
0.0364695
0.00345527
0.000241616
2.17717e-05
8.77184e-08
2.1033e-10
3.51457e-13
4.52196e-16
4.6677e-19
3.87918e-22
2.50214e-25
1.16e-28
3.38254e-32
4.9141e-36
4.67344e-40
-2.86864e-44
-1.84099e-47
-9.00007e-51
-3.81062e-54
-1.50425e-57
2.15418e-54
1.09536e-53
4.52587e-57
1.36565e-60
-4.61634e-57
2.69329e-51
2.3421e-53
1.58896e-55
9.4878e-58
0.259294
0.0364192
0.00343509
0.000237814
2.10513e-05
8.02668e-08
1.77691e-10
2.71526e-13
3.22282e-16
2.99222e-19
1.93631e-22
7.55575e-26
1.58071e-29
1.81346e-33
2.11126e-37
-2.0303e-40
7.42765e-49
-8.02807e-59
3.30541e-62
-9.97361e-67
-9.71066e-65
1.19215e-48
2.61738e-47
5.22807e-50
1.57508e-54
-3.66072e-53
6.06409e-46
1.20515e-48
2.76452e-51
7.64923e-54
0.259287
0.0363465
0.00340562
0.000232164
1.995e-05
6.88451e-08
1.30122e-10
1.63311e-13
1.49416e-16
1.01013e-19
6.10803e-23
3.76175e-26
2.19262e-29
1.14215e-32
5.77801e-36
1.59926e-38
-1.80071e-46
3.11146e-58
9.4556e-44
3.12772e-42
2.10294e-44
1.80812e-47
1.01315e-46
4.66312e-42
2.06327e-44
6.81264e-47
1.82404e-49
0.259279
0.0362508
0.00336638
0.000224516
1.84169e-05
5.3438e-08
7.3664e-11
5.61997e-14
3.50839e-17
8.38714e-20
2.94065e-22
5.79988e-25
6.95586e-28
7.48035e-27
2.89256e-29
5.65078e-30
3.42105e-38
2.1648e-53
5.87056e-39
2.99318e-37
2.09909e-39
2.35642e-42
4.77249e-44
3.78685e-39
2.15808e-41
8.77574e-44
2.92329e-46
0.259265
0.0361419
0.00332106
0.000215589
1.65766e-05
3.63196e-08
2.52965e-11
4.51572e-15
1.41351e-20
-3.90222e-23
-4.92452e-26
3.05703e-27
-1.35078e-28
4.57001e-18
3.80664e-21
3.01394e-21
2.07329e-29
-1.79294e-46
1.89075e-33
4.24042e-32
1.76968e-34
1.90091e-37
8.84894e-41
2.80204e-36
1.89984e-38
9.29771e-41
3.47318e-43
0.259258
0.0360428
0.00327957
0.00020738
1.48278e-05
2.22619e-08
3.27547e-12
-1.5047e-17
1.16061e-21
1.76553e-11
1.6085e-14
-6.47046e-13
2.85783e-17
5.55338e-25
1.53396e-22
3.02745e-22
-5.95472e-28
1.23138e-24
1.00902e-26
1.61759e-29
1.433e-32
7.33846e-36
2.68154e-33
1.92662e-35
9.83487e-38
3.90663e-40
0.259248
0.0359824
0.00325447
0.000202434
1.37037e-05
1.48206e-08
1.96228e-14
2.06015e-17
1.10948e-13
5.61876e-07
6.97942e-06
0.000341662
2.33324e-05
2.69025e-07
1.34535e-09
3.66109e-12
5.07518e-15
4.61178e-18
2.93772e-21
1.3395e-24
7.19256e-28
3.79367e-31
5.15531e-30
2.92301e-32
1.44843e-34
6.32516e-37
0.259247
0.0359827
0.00325447
0.000202425
1.3555e-05
1.34852e-08
1.65171e-14
1.5932e-17
1.91527e-07
0.193589
29.4558
1876.51
0.0165509
0.000137349
1.15506e-06
6.05877e-09
1.87158e-11
3.67048e-14
4.80981e-17
4.23933e-20
2.50889e-23
1.306e-26
7.9327e-28
4.58815e-30
2.2877e-32
9.88535e-35
0.259256
0.0360418
0.00327931
0.000207337
1.44344e-05
1.79094e-08
2.2585e-13
2.84341e-17
3.21728e-11
2.69146e-06
-1.30794e-07
-0.000304769
-2.72631e-05
-1.98656e-07
9.37257e-11
9.1943e-11
3.24519e-14
4.06195e-18
1.04375e-20
1.08592e-23
6.72014e-27
2.60853e-30
9.84727e-31
8.11745e-33
4.51558e-35
1.91831e-37
0.259266
0.0361411
0.00332071
0.000215522
1.60747e-05
2.91328e-08
1.11129e-11
-7.19059e-17
1.4196e-23
1.33453e-31
-7.26993e-36
1.10844e-34
1.46145e-19
1.4054e-10
2.89787e-14
-2.92546e-13
4.65915e-18
6.66299e-25
4.83225e-22
5.92108e-21
-7.92193e-28
3.76601e-28
8.8729e-27
9.5743e-29
1.22791e-31
5.88712e-35
1.67843e-33
1.35565e-35
7.15649e-38
2.68477e-40
0.259277
0.0362495
0.00336585
0.000224424
1.79488e-05
4.55357e-08
4.75741e-11
2.20727e-14
2.73529e-17
1.69283e-19
4.00423e-22
4.19957e-25
8.35366e-24
2.69423e-19
6.57347e-22
4.96412e-22
1.12119e-28
-1.44829e-46
7.51202e-37
1.1608e-32
8.80812e-34
1.98671e-36
1.02538e-39
3.24689e-36
2.34597e-38
1.04566e-40
3.14404e-43
0.259287
0.0363448
0.00340506
0.000232054
1.95851e-05
6.2135e-08
1.02548e-10
1.05707e-13
7.74214e-17
5.98341e-20
6.95155e-23
1.46377e-25
2.33518e-28
7.30997e-28
3.18795e-30
-1.69366e-31
2.30975e-37
-3.69628e-56
1.26595e-42
2.06499e-38
7.41051e-39
2.78883e-41
4.35377e-43
6.37546e-39
4.16111e-41
1.53113e-43
3.19436e-46
0.259292
0.0364162
0.00343415
0.000237681
2.07873e-05
7.53153e-08
1.55284e-10
2.18275e-13
2.34394e-16
1.81552e-19
9.27129e-23
3.28808e-26
8.92409e-30
1.26962e-32
3.84253e-35
-2.64199e-36
-3.13047e-43
4.64958e-61
6.15542e-49
1.12957e-44
3.71294e-44
2.53813e-46
1.44833e-45
1.11959e-41
6.72194e-44
2.06395e-46
3.20323e-49
0.25932
0.0364717
0.00345501
0.000241516
2.15895e-05
8.43318e-08
1.94517e-10
3.11531e-13
3.85655e-16
3.83679e-19
2.95251e-22
1.5836e-25
5.10445e-29
8.08527e-33
6.14121e-37
-4.60261e-40
2.70075e-46
3.89838e-55
1.2162e-59
-8.906e-64
-2.81355e-65
7.0232e-59
5.93184e-54
1.46e-50
1.03762e-51
1.53788e-48
1.1422e-44
6.71082e-47
1.78106e-49
2.65826e-52
0.259276
0.0365017
0.00346781
0.000243888
2.20863e-05
8.9907e-08
2.1955e-10
3.74009e-13
4.88766e-16
5.08945e-19
4.26919e-22
2.85859e-25
1.48536e-28
5.65744e-32
1.41966e-35
2.1329e-39
4.22794e-43
5.54419e-45
1.00732e-47
7.31213e-51
3.34689e-54
1.09173e-57
2.78136e-61
5.22664e-58
5.53528e-58
8.03282e-54
3.44049e-48
3.89234e-50
2.71644e-52
1.648e-54
0.259295
0.0365199
0.00347583
0.000245361
2.23773e-05
9.30728e-08
2.33852e-10
4.10557e-13
5.51046e-16
5.87728e-19
5.06541e-22
3.53818e-25
2.00152e-28
9.18876e-32
3.48432e-35
1.12933e-38
3.16109e-42
8.29587e-46
2.4921e-49
8.63644e-53
3.11525e-56
9.16109e-60
-2.92063e-62
-1.80179e-62
1.83505e-62
-2.21242e-58
1.19041e-51
1.48739e-53
1.15191e-55
8.50887e-58
0.259291
0.0365388
0.00348194
0.00024633
2.25592e-05
9.48964e-08
2.4177e-10
4.30441e-13
5.85221e-16
6.32192e-19
5.54766e-22
4.00289e-25
2.39609e-28
1.2036e-31
5.18938e-35
1.97152e-38
1.45847e-42
-8.91975e-44
-1.33436e-45
-1.8144e-47
-2.35003e-49
-3.04588e-51
-7.39293e-53
-3.90023e-53
4.6506e-53
6.01745e-54
1.88319e-50
6.05495e-52
1.29168e-53
2.29484e-55
0.259287
0.0365591
0.00348913
0.000247297
2.2632e-05
9.48279e-08
2.40846e-10
4.27554e-13
5.78327e-16
6.22008e-19
5.46521e-22
1.78752e-25
-8.75151e-27
-2.56941e-28
-6.10633e-30
-1.3093e-31
-2.58583e-33
-4.74165e-35
-8.31122e-37
-1.37574e-38
-2.18237e-40
-3.34956e-42
-4.96982e-44
-6.51141e-47
7.11329e-46
2.72622e-47
9.68216e-47
1.82801e-48
2.79177e-50
3.78425e-52
0.259253
0.0366075
0.00350465
0.000252082
1.44931e-05
6.92974e-07
2.8344e-08
1.01192e-09
3.20676e-11
9.14144e-13
2.36916e-14
5.63148e-16
1.2372e-17
2.53217e-19
4.86562e-21
8.8482e-23
1.53318e-24
2.54362e-26
4.04642e-28
6.16707e-30
8.99284e-32
1.25387e-33
1.67171e-35
2.13324e-37
2.60977e-39
3.06551e-41
3.45292e-43
3.72094e-45
3.8444e-47
3.80297e-49
0.259248
0.0366246
0.00351018
0.000252874
1.45496e-05
6.9622e-07
2.84929e-08
1.01806e-09
3.22861e-11
9.20879e-13
2.38776e-14
5.67935e-16
1.24907e-17
2.55819e-19
4.91319e-21
8.90497e-23
1.53152e-24
2.50859e-26
3.92139e-28
5.8537e-30
8.34374e-32
1.1357e-33
1.47685e-35
1.83675e-37
2.18641e-39
2.49412e-41
2.7289e-43
2.86662e-45
2.89625e-47
2.81228e-49
0.259246
0.036629
0.00351172
0.00025308
1.4564e-05
6.96774e-07
2.8509e-08
1.01855e-09
3.23001e-11
9.2129e-13
2.3897e-14
5.68734e-16
1.2522e-17
2.56865e-19
4.9416e-21
8.96568e-23
1.54191e-24
2.52262e-26
3.93532e-28
5.86168e-30
8.34171e-32
1.13474e-33
1.4766e-35
1.83984e-37
2.19748e-39
2.51786e-41
2.77071e-43
2.92934e-45
2.98053e-47
2.9186e-49
0.259243
0.0366322
0.00351274
0.000253218
1.45745e-05
6.97291e-07
2.85298e-08
1.01941e-09
3.2336e-11
9.22698e-13
2.39457e-14
5.70464e-16
1.25733e-17
2.58261e-19
4.97429e-21
9.03594e-23
1.55503e-24
2.54476e-26
3.9698e-28
5.91243e-30
8.41518e-32
1.14542e-33
1.49212e-35
1.86202e-37
2.22765e-39
2.55831e-41
2.82166e-43
2.9912e-45
3.05381e-47
3.00149e-49
0.259352
0.0373494
0.00372735
0.000285811
1.78617e-05
9.45205e-07
4.35004e-08
1.77566e-09
6.52729e-11
2.18721e-12
6.74742e-14
1.93226e-15
5.17289e-17
1.30244e-18
3.10044e-20
7.00899e-22
1.51009e-23
3.10903e-25
6.12751e-27
1.15716e-28
2.09499e-30
3.63628e-32
6.05089e-34
9.65271e-36
1.47627e-37
2.16538e-39
3.04652e-41
4.11386e-43
5.34006e-45
6.65609e-47
0.259349
0.0373522
0.00372861
0.00028606
1.78926e-05
9.47922e-07
4.36815e-08
1.78546e-09
6.57239e-11
2.20549e-12
6.81389e-14
1.95437e-15
5.24092e-17
1.32211e-18
3.15445e-20
7.15107e-22
1.54607e-23
3.19644e-25
6.33003e-27
1.20166e-28
2.18753e-30
3.818e-32
6.38841e-34
1.02455e-35
1.57476e-37
2.32038e-39
3.2788e-41
4.44444e-43
5.78889e-45
7.23748e-47
0.259342
0.0373582
0.00373143
0.000286612
1.79612e-05
9.53913e-07
4.40814e-08
1.80743e-09
6.67629e-11
2.24887e-12
6.97601e-14
2.00937e-15
5.4124e-17
1.372e-18
3.29147e-20
7.51025e-22
1.63638e-23
3.41412e-25
6.83073e-27
1.31102e-28
2.41394e-30
4.26183e-32
7.21329e-34
1.16977e-35
1.81731e-37
2.70407e-39
3.85564e-41
5.26981e-43
6.91507e-45
8.70253e-47
0.259329
0.0373669
0.00373619
0.000287673
1.8096e-05
9.63995e-07
4.46838e-08
1.83768e-09
6.80863e-11
2.30013e-12
7.15428e-14
2.06531e-15
5.57261e-17
1.41446e-18
3.39808e-20
7.77036e-22
1.69936e-23
3.56561e-25
7.18668e-27
1.39118e-28
2.58486e-30
4.60623e-32
7.8686e-34
1.28754e-35
2.01679e-37
3.02224e-39
4.33359e-41
5.94959e-43
7.83562e-45
9.89599e-47
0.259315
0.0373724
0.00374154
0.000289264
3.46305e-05
3.1566e-07
1.80615e-09
7.21399e-12
2.45787e-14
1.67383e-16
3.36779e-18
8.26617e-20
1.95274e-21
4.37514e-23
9.32976e-25
1.89668e-26
3.66795e-28
6.75362e-30
1.18598e-31
1.99394e-33
3.208e-35
4.95993e-37
7.39742e-39
1.05252e-40
5.95955e-41
3.04556e-42
2.11391e-44
4.70301e-46
8.50561e-48
1.33787e-49
0.259296
0.0373819
0.00374676
0.000290375
3.48955e-05
3.20645e-07
1.84677e-09
7.31402e-12
2.11902e-14
4.70508e-17
8.28438e-20
1.18684e-22
1.41262e-25
1.42369e-28
1.22539e-31
5.84879e-35
-7.26493e-37
-1.59185e-38
-3.05093e-40
-5.55262e-42
-9.68794e-44
-1.64301e-45
-2.68959e-47
-4.24063e-49
2.87513e-48
1.20282e-48
7.87862e-48
2.91165e-49
6.97903e-51
1.32039e-52
0.259281
0.0373898
0.00375049
0.000291088
3.50572e-05
3.2419e-07
1.88402e-09
7.54715e-12
2.21756e-14
5.00495e-17
8.96295e-20
1.30322e-22
1.56604e-25
1.58201e-28
1.37277e-31
1.05532e-34
7.46889e-38
4.98009e-41
3.07626e-44
1.70289e-47
8.21232e-51
1.95678e-54
-2.28529e-56
9.25003e-58
2.34964e-55
5.41653e-55
4.18061e-51
2.05121e-52
5.90411e-54
1.25852e-55
0.259261
0.0373943
0.00375293
0.000291532
3.51512e-05
3.26281e-07
1.90886e-09
7.73067e-12
2.30916e-14
5.32506e-17
9.76443e-20
1.44964e-22
1.76236e-25
1.7731e-28
1.50296e-31
1.11289e-34
7.61243e-38
5.03403e-41
3.1444e-44
1.75522e-47
8.67457e-51
3.8735e-54
1.57146e-57
5.72014e-61
3.15853e-61
9.25461e-61
3.82276e-54
2.16106e-55
6.89534e-57
1.53906e-58
0.259236
0.0373941
0.00375349
0.000291568
3.51406e-05
3.26123e-07
1.91349e-09
7.82143e-12
2.37989e-14
5.64254e-17
1.06836e-19
1.62992e-22
2.00199e-25
1.95976e-28
1.50538e-31
9.17574e-35
8.43683e-39
2.19046e-44
1.1822e-47
1.12199e-50
4.21864e-55
8.79498e-54
4.23808e-53
1.80566e-56
4.01595e-60
-2.94501e-60
2.33194e-54
3.13569e-56
3.16554e-58
2.84932e-60
0.259201
0.037386
0.00375089
0.000290916
3.49527e-05
3.21909e-07
1.87777e-09
7.68986e-12
2.37834e-14
5.81827e-17
1.14112e-19
1.77691e-22
2.14439e-25
1.92278e-28
1.19777e-31
9.6043e-35
2.7036e-41
-9.06798e-55
3.53611e-59
5.20678e-61
3.37697e-61
2.2117e-48
2.74782e-47
4.07481e-50
1.32794e-54
-1.81605e-55
4.1879e-49
1.86277e-51
7.37761e-54
2.94331e-56
0.259156
0.0373657
0.00374367
0.000289216
3.44832e-05
3.10871e-07
1.76949e-09
7.12195e-12
2.21614e-14
5.63508e-17
1.17307e-19
1.97186e-22
2.63898e-25
2.73845e-28
2.02116e-31
8.44569e-35
4.71172e-40
1.30689e-49
2.17664e-43
6.54973e-42
3.30248e-44
2.38377e-47
2.72658e-49
1.26315e-44
3.62924e-47
5.88946e-50
6.26529e-53
0.259103
0.0373322
0.00373044
0.000286147
3.36329e-05
2.90309e-07
1.55803e-09
5.9401e-12
1.85231e-14
5.23354e-17
1.30169e-19
2.51657e-22
3.53355e-25
3.67492e-25
1.91937e-27
-5.98885e-29
-4.75745e-33
5.29619e-45
2.5213e-38
1.65065e-36
8.57592e-39
7.52852e-42
2.75444e-45
1.73497e-41
8.68125e-44
3.07216e-46
7.72022e-49
0.259049
0.0372872
0.00371216
0.000281868
3.24174e-05
2.60297e-07
1.24626e-09
7.85381e-12
6.27203e-16
3.49455e-20
1.34203e-23
4.20215e-26
9.39082e-25
2.79012e-16
1.43096e-19
8.62067e-21
7.5765e-26
-4.517e-40
4.02523e-32
5.91523e-31
1.61771e-33
1.22311e-36
4.38539e-40
1.6597e-38
1.13709e-40
5.16207e-43
1.78759e-45
0.259004
0.0372424
0.00369361
0.000277474
3.11282e-05
2.28215e-07
9.17079e-10
3.99501e-12
1.11012e-16
2.40185e-10
5.84036e-12
-1.62338e-11
9.3758e-16
-3.43748e-19
-4.84405e-21
2.56463e-20
-2.90025e-26
4.29262e-23
2.41028e-25
2.88078e-28
1.69129e-31
5.54963e-35
1.70492e-35
1.16942e-37
5.61099e-40
2.13965e-42
0.258975
0.0372131
0.00368169
0.000274668
3.02593e-05
2.06734e-07
7.18654e-10
2.10238e-12
2.17999e-09
2.29133e-05
0.00128657
0.194164
0.000138945
4.77035e-07
1.47799e-09
2.01326e-11
5.86992e-14
7.77647e-17
7.06838e-20
4.4093e-23
1.86908e-26
5.16309e-30
3.47547e-32
1.75256e-34
7.93671e-37
3.30512e-39
0.258977
0.0372136
0.00368169
0.000274658
3.01648e-05
2.03058e-07
6.84761e-10
1.83406e-12
0.00130431
37.1287
6009.12
508681
5.62542
0.0294791
0.000187141
7.84281e-07
1.95563e-09
3.04463e-12
3.08529e-15
2.01986e-18
8.34212e-22
2.19663e-25
4.55006e-30
2.24987e-32
9.95223e-35
4.03542e-37
0.259002
0.0372417
0.00369338
0.00027743
3.08703e-05
2.17603e-07
8.04625e-10
2.63073e-12
1.62955e-07
0.000109656
8.60366e-05
0.0177589
9.68954e-05
-8.79263e-08
-2.86682e-10
2.64336e-11
2.56836e-14
8.14137e-18
2.61531e-20
3.79471e-23
2.52537e-26
8.58775e-30
5.45239e-33
4.17394e-35
2.2307e-37
9.82667e-40
0.259049
0.0372872
0.00371192
0.000281812
3.20952e-05
2.46391e-07
1.08506e-09
5.65713e-12
3.20736e-17
-1.41075e-29
7.09673e-35
4.10289e-27
1.61661e-14
7.91711e-10
6.378e-13
-9.16169e-12
3.22354e-15
1.97069e-20
-2.26928e-20
9.95776e-21
-4.17013e-27
-2.24162e-27
7.50154e-26
3.93076e-28
4.10603e-31
1.62929e-34
9.08518e-36
7.62476e-38
4.22702e-40
1.84838e-42
0.259101
0.0373313
0.00373011
0.000286079
3.33498e-05
2.78204e-07
1.4196e-09
5.1475e-12
1.53865e-14
4.36232e-17
8.52696e-20
7.63677e-23
-1.19409e-22
2.04625e-17
4.32611e-20
4.86122e-22
1.19214e-25
1.01453e-40
1.5645e-35
1.3931e-31
3.3989e-33
5.34272e-36
2.29275e-39
1.6607e-38
1.26786e-40
6.65864e-43
2.65535e-45
0.259155
0.0373652
0.00374332
0.000289148
3.428e-05
3.0251e-07
1.67714e-09
6.59086e-12
2.0489e-14
5.41566e-17
1.22017e-19
2.29291e-22
3.48048e-25
2.62588e-26
2.83522e-28
-1.34225e-29
-7.63933e-33
1.0597e-48
1.24226e-41
2.11622e-37
2.26188e-38
5.72225e-41
2.90448e-44
2.69496e-41
1.81785e-43
7.79563e-46
2.55881e-48
0.259209
0.0373855
0.0037505
0.000290853
3.48207e-05
3.16864e-07
1.82698e-09
7.4238e-12
2.29969e-14
5.69815e-17
1.13598e-19
1.78961e-22
2.17783e-25
1.97616e-28
1.24018e-31
7.84284e-35
1.43912e-39
1.49826e-53
1.92825e-47
2.09671e-43
9.95873e-44
4.19899e-46
3.00527e-48
3.04423e-44
1.81704e-46
6.40116e-49
1.67282e-51
0.259234
0.0373955
0.00375351
0.000291513
3.5058e-05
3.23372e-07
1.88948e-09
7.72292e-12
2.36431e-14
5.67513e-17
1.08956e-19
1.67415e-22
2.03056e-25
1.88575e-28
1.27728e-31
1.16338e-34
3.73469e-40
1.60708e-49
6.85673e-56
6.37159e-57
-6.01007e-63
2.44359e-57
7.77554e-52
1.08103e-49
1.67195e-51
2.48924e-51
2.09511e-47
1.43248e-49
5.67153e-52
1.80376e-54
0.259249
0.0373924
0.00375278
0.00029149
3.50984e-05
3.24862e-07
1.89954e-09
7.71274e-12
2.31867e-14
5.39884e-17
1.00093e-19
1.49756e-22
1.81996e-25
1.80048e-28
1.45943e-31
9.9569e-35
6.22263e-38
4.07969e-41
2.75664e-44
1.61588e-47
7.66469e-51
2.8713e-54
8.11829e-58
2.72484e-57
1.17767e-57
5.62257e-57
1.23038e-51
2.4663e-53
3.06313e-55
3.09329e-57
0.25928
0.037388
0.00375004
0.000291025
3.50288e-05
3.23546e-07
1.88218e-09
7.56095e-12
2.23271e-14
5.07287e-17
9.14615e-20
1.33556e-22
1.60348e-25
1.60473e-28
1.36704e-31
1.02728e-34
7.1468e-38
4.72331e-41
2.87915e-44
1.55138e-47
7.28594e-51
2.99354e-54
1.08326e-57
3.43521e-61
7.66002e-64
-4.33105e-62
3.93046e-55
6.82319e-57
9.55316e-57
9.77348e-58
0.259297
0.0373817
0.00374659
0.000290331
3.48807e-05
3.20804e-07
1.85206e-09
7.35873e-12
2.14078e-14
4.77435e-17
8.43792e-20
1.21116e-22
1.43932e-25
1.44278e-28
1.24579e-31
9.52013e-35
6.63345e-38
4.24197e-41
1.3403e-44
-1.98291e-46
-3.42176e-48
-5.39222e-50
-8.32293e-52
-1.25088e-53
-1.79917e-55
7.23181e-57
-5.38788e-51
-9.49336e-54
5.7364e-53
3.77352e-54
0.259315
0.0373721
0.00374139
0.00028922
3.46436e-05
3.16127e-07
1.80682e-09
7.09661e-12
2.03666e-14
4.47511e-17
7.79855e-20
1.11117e-22
1.33542e-25
-6.49429e-29
-9.74741e-30
-3.01596e-31
-8.06112e-33
-1.90632e-34
-4.13587e-36
-8.36058e-38
-1.59757e-39
-2.92018e-41
-5.09978e-43
-8.56041e-45
-1.36797e-46
-2.10867e-48
-1.14923e-45
2.05182e-48
5.78208e-49
1.89506e-50
0.259328
0.0373666
0.00373604
0.000287634
1.80901e-05
9.63379e-07
4.46319e-08
1.83423e-09
6.78878e-11
2.29025e-12
7.11025e-14
2.04805e-15
5.51123e-17
1.39439e-18
3.33755e-20
7.60063e-22
1.65484e-23
3.45584e-25
6.93098e-27
1.33453e-28
2.46571e-30
4.36858e-32
7.42378e-34
1.21039e-35
1.89497e-37
2.8494e-39
4.11752e-41
5.71946e-43
7.64645e-45
9.82417e-47
0.259342
0.0373577
0.00373122
0.00028657
1.7955e-05
9.53275e-07
4.40302e-08
1.80401e-09
6.6571e-11
2.23941e-12
6.93487e-14
1.99347e-15
5.35608e-17
1.35373e-18
3.2365e-20
7.35665e-22
1.59638e-23
3.31604e-25
6.60372e-27
1.26158e-28
2.31202e-30
4.06386e-32
6.85386e-34
1.10928e-35
1.72367e-37
2.57293e-39
3.69091e-41
5.09014e-43
6.75682e-45
8.62e-47
0.259349
0.0373519
0.00372847
0.000286023
1.7887e-05
9.47326e-07
4.36322e-08
1.78215e-09
6.55386e-11
2.19643e-12
6.77553e-14
1.93927e-15
5.18835e-17
1.30515e-18
3.10443e-20
7.0131e-22
1.51045e-23
3.11032e-25
6.13441e-27
1.15986e-28
2.10308e-30
3.65834e-32
6.10588e-34
9.78204e-36
1.50513e-37
2.22466e-39
3.16074e-41
4.31719e-43
5.67701e-45
7.17957e-47
0.259352
0.0373491
0.00372722
0.000285774
1.78559e-05
9.44594e-07
4.34505e-08
1.77238e-09
6.50888e-11
2.17827e-12
6.70915e-14
1.91772e-15
5.1219e-17
1.28624e-18
3.05249e-20
6.87767e-22
1.47651e-23
3.02851e-25
5.94625e-27
1.11874e-28
2.01857e-30
3.49355e-32
5.80278e-34
9.25287e-36
1.41689e-37
2.0853e-39
2.94973e-41
4.01254e-43
5.25617e-45
6.62384e-47
0.259184
0.0371076
0.00365787
0.000275385
1.6813e-05
8.65757e-07
3.86601e-08
1.52825e-09
5.43412e-11
1.76031e-12
5.24917e-14
1.45351e-15
3.76502e-17
9.18116e-19
2.11929e-20
4.652e-22
9.74705e-24
1.95479e-25
3.75962e-27
6.94176e-29
1.23138e-30
2.09881e-32
3.43776e-34
5.41186e-36
8.18958e-38
1.19164e-39
1.66757e-41
2.24567e-43
2.91423e-45
3.64331e-47
0.259185
0.0371082
0.00365814
0.000275448
1.68218e-05
8.66614e-07
3.87229e-08
1.53193e-09
5.45205e-11
1.76789e-12
5.27769e-14
1.46319e-15
3.79539e-17
9.27047e-19
2.14424e-20
4.71894e-22
9.91959e-24
1.99731e-25
3.8591e-27
7.16186e-29
1.27718e-30
2.1888e-32
3.60512e-34
5.70571e-36
8.67827e-38
1.26884e-39
1.78366e-41
2.41188e-43
3.14169e-45
3.94122e-47
0.259185
0.0371097
0.00365872
0.000275577
1.68399e-05
8.68384e-07
3.88524e-08
1.5395e-09
5.48937e-11
1.78387e-12
5.33849e-14
1.48411e-15
3.86159e-17
9.46631e-19
2.1993e-20
4.86723e-22
1.03031e-23
2.0922e-25
4.08196e-27
7.65606e-29
1.3804e-30
2.39231e-32
3.98485e-34
6.3762e-36
9.80127e-38
1.44734e-39
2.05405e-41
2.80246e-43
3.68114e-45
4.65435e-47
0.259188
0.0371114
0.00365943
0.000275745
1.68656e-05
8.69904e-07
3.89507e-08
1.5455e-09
5.52082e-11
1.79799e-12
5.39376e-14
1.50319e-15
3.92116e-17
9.6393e-19
2.24733e-20
4.99765e-22
1.06516e-23
2.18254e-25
4.30475e-27
8.17159e-29
1.49202e-30
2.6186e-32
4.41612e-34
7.15145e-36
1.1115e-37
1.65753e-39
2.37263e-41
3.26144e-43
4.3112e-45
5.48213e-47
0.259191
0.037113
0.00365985
0.000275934
3.22121e-05
2.79936e-07
1.50803e-09
5.65423e-12
1.84279e-14
1.28175e-16
2.57033e-18
6.12165e-20
1.40065e-21
3.04427e-23
6.31072e-25
1.25085e-26
2.36665e-28
4.27837e-30
7.40964e-32
1.23259e-33
1.97542e-35
3.04669e-37
4.53857e-39
8.84713e-40
8.25189e-41
2.21017e-42
1.3211e-44
2.85854e-46
5.10822e-48
8.00327e-50
0.259192
0.0371136
0.00366023
0.000276065
3.22684e-05
2.81634e-07
1.52456e-09
5.66374e-12
1.54572e-14
3.25386e-17
5.47674e-20
7.57494e-23
8.80288e-26
8.76505e-29
7.52551e-32
3.36879e-35
-4.89111e-37
-1.03253e-38
-1.92051e-40
-3.40488e-42
-5.81291e-44
-9.61907e-46
-1.54949e-47
2.10608e-47
2.41844e-47
1.70778e-48
5.83914e-48
2.07462e-49
4.88726e-51
9.17214e-53
0.259193
0.0371125
0.00365999
0.000276084
3.22989e-05
2.82938e-07
1.54193e-09
5.78786e-12
1.60254e-14
3.4359e-17
5.90465e-20
8.33997e-23
9.87435e-26
9.98286e-29
8.80471e-32
6.96566e-35
5.10952e-38
3.56014e-41
2.33765e-44
1.4103e-47
7.67826e-51
2.87424e-54
-1.31744e-56
1.53502e-54
1.09348e-53
1.6712e-54
3.6195e-51
1.73852e-52
5.01184e-54
1.08144e-55
0.259191
0.037108
0.00365843
0.000275863
3.22794e-05
2.83444e-07
1.55439e-09
5.90351e-12
1.66561e-14
3.66437e-17
6.49284e-20
9.46185e-23
1.15071e-25
1.18378e-28
1.04958e-31
8.30555e-35
6.22648e-38
4.6724e-41
3.45591e-44
2.37944e-47
1.48662e-50
8.41275e-54
4.3004e-57
2.81588e-60
1.86255e-59
4.57781e-60
3.51116e-54
2.02588e-55
6.69142e-57
1.57008e-58
0.259184
0.037098
0.00365469
0.000275222
3.21715e-05
2.82427e-07
1.55563e-09
5.98344e-12
1.72985e-14
3.94958e-17
7.32775e-20
1.12042e-22
1.4208e-25
1.4972e-28
1.31516e-31
9.83494e-35
1.33118e-38
4.28581e-44
2.43908e-47
2.05927e-50
1.17384e-54
2.78456e-57
2.0054e-57
5.62251e-61
1.25597e-64
-1.34846e-63
5.3884e-57
2.77845e-58
9.43565e-60
2.25708e-61
0.259175
0.0370793
0.00364762
0.000273918
3.19164e-05
2.78602e-07
1.53338e-09
5.96152e-12
1.77628e-14
4.27534e-17
8.49727e-20
1.39744e-22
1.8922e-25
2.07902e-28
1.77495e-31
2.09534e-34
1.26798e-40
-6.13805e-56
1.24948e-59
2.43688e-60
9.59522e-65
1.3285e-51
1.43705e-51
4.49244e-55
6.43926e-60
-2.07123e-58
2.41554e-52
1.59517e-54
9.03447e-57
4.92459e-59
0.259161
0.037049
0.0036358
0.000271656
3.14356e-05
2.70149e-07
1.46739e-09
5.70846e-12
1.75602e-14
4.54573e-17
9.99971e-20
1.85583e-22
2.86885e-25
3.5874e-28
3.29697e-31
1.65559e-34
8.79649e-40
9.31486e-53
3.62506e-46
7.4892e-46
7.65631e-49
1.58469e-52
1.1683e-52
1.89724e-48
4.69243e-51
1.21091e-53
2.67288e-56
0.259139
0.0370061
0.00361863
0.000268251
3.06663e-05
2.55117e-07
1.3312e-09
5.00466e-12
1.54481e-14
4.40813e-17
1.12779e-19
2.12414e-22
2.63403e-25
3.61671e-28
1.01633e-30
-3.75275e-32
9.79286e-37
4.08349e-46
4.17969e-40
6.107e-40
8.47295e-43
2.69352e-46
5.86131e-50
2.08589e-46
9.26376e-49
2.52306e-51
8.30391e-54
0.259122
0.0369542
0.00359765
0.000263938
2.96333e-05
2.33077e-07
1.10656e-09
6.94522e-12
5.36356e-16
2.72733e-20
9.76079e-24
1.36309e-26
5.80925e-28
1.33991e-19
5.38387e-23
6.00959e-24
1.50845e-29
-4.95253e-43
2.78147e-32
3.96739e-34
3.67774e-37
1.29401e-40
2.52338e-44
3.14667e-43
2.38994e-45
1.17942e-47
4.84847e-50
0.259102
0.0369055
0.00357765
0.000259739
2.85724e-05
2.08955e-07
8.43879e-10
3.48889e-12
2.98316e-20
4.71384e-13
3.57741e-15
-9.58221e-15
-1.03124e-19
6.20861e-22
5.9275e-22
2.0203e-23
-9.70206e-29
7.08374e-26
9.62805e-29
5.84141e-32
1.95559e-35
4.01049e-39
4.4746e-40
3.26763e-42
1.7757e-44
9.20592e-47
0.25909
0.0368757
0.00356535
0.000257147
2.78739e-05
1.92717e-07
6.84166e-10
1.94762e-12
6.27275e-13
1.33268e-07
1.21816e-06
0.000136174
4.76816e-08
1.75862e-10
6.09648e-13
9.49773e-15
2.16863e-17
2.05568e-20
1.24815e-23
5.17567e-27
1.45055e-30
2.7654e-34
1.69479e-36
9.95155e-39
5.38274e-41
2.72427e-43
0.259091
0.0368757
0.00356523
0.000257133
2.77982e-05
1.8979e-07
6.55995e-10
1.73503e-12
3.67299e-07
0.0404896
8.59605
559.811
0.00411794
1.79227e-05
1.0304e-07
3.62919e-10
6.96944e-13
7.7009e-16
5.21263e-19
2.21673e-22
6.40028e-26
1.28894e-29
2.58932e-34
1.49416e-36
7.9198e-39
3.91713e-41
0.259102
0.0369049
0.00357736
0.000259691
2.83665e-05
2.00587e-07
7.49521e-10
2.34546e-12
5.14609e-11
4.49473e-07
7.54962e-08
1.1117e-05
-5.83112e-08
-1.89342e-11
2.99922e-14
1.00698e-14
1.436e-17
6.00041e-21
7.85511e-24
6.11093e-27
2.65231e-30
6.9018e-34
2.75599e-37
2.6539e-39
1.83036e-41
1.05616e-43
0.259119
0.0369528
0.00359724
0.000263862
2.93739e-05
2.22288e-07
9.75047e-10
4.87214e-12
2.28039e-17
8.359e-29
1.29017e-35
3.84409e-32
4.53509e-18
2.23455e-13
2.61594e-16
-4.6482e-15
-2.15344e-18
4.1893e-22
1.52174e-24
1.35011e-24
-1.28396e-30
2.54127e-27
5.23871e-29
9.29947e-32
5.75839e-35
1.74094e-38
4.08756e-40
4.69816e-42
3.61138e-44
2.20665e-46
0.259141
0.0370048
0.00361819
0.000268165
3.04342e-05
2.45957e-07
1.23052e-09
4.3852e-12
1.25332e-14
3.44601e-17
5.7354e-20
3.15482e-23
-1.06224e-25
8.42509e-21
1.4573e-23
-4.09229e-25
-1.8336e-29
-2.43411e-41
1.74985e-36
1.36762e-34
7.98258e-37
6.92703e-40
2.26927e-43
6.3433e-43
7.11469e-45
5.36451e-47
3.01009e-49
0.259161
0.0370482
0.00363534
0.000271571
3.1262e-05
2.63747e-07
1.40507e-09
5.39341e-12
1.67194e-14
4.51878e-17
1.08443e-19
2.24816e-22
3.84094e-25
4.80376e-28
5.68805e-31
-4.10533e-33
4.9798e-37
3.27593e-49
1.705e-44
1.02154e-40
2.97171e-42
4.0993e-45
1.46081e-48
7.08908e-46
6.89399e-48
4.51947e-50
1.86453e-52
0.259183
0.0370805
0.00364726
0.000273841
3.17963e-05
2.74523e-07
1.49859e-09
5.82189e-12
1.75788e-14
4.36611e-17
9.05566e-20
1.55738e-22
2.20001e-25
2.4987e-28
2.11967e-31
2.10806e-34
7.17387e-41
8.96102e-57
2.3097e-51
2.70113e-47
4.61555e-48
1.01432e-50
2.18155e-52
7.81366e-49
3.33028e-51
1.26555e-53
4.12645e-56
0.259175
0.0370974
0.00365443
0.000275143
3.20934e-05
2.79879e-07
1.53703e-09
5.92801e-12
1.73405e-14
4.04348e-17
7.71419e-20
1.21417e-22
1.5767e-25
1.67782e-28
1.43753e-31
1.86288e-34
1.12441e-39
7.74305e-49
1.41994e-55
5.71504e-57
-8.0654e-66
5.67711e-58
1.36658e-55
2.55046e-54
2.38498e-56
8.18493e-56
1.58994e-50
1.47892e-52
9.02839e-55
4.94601e-57
0.259191
0.0371042
0.00365798
0.000275801
3.22223e-05
2.81872e-07
1.54428e-09
5.88353e-12
1.67415e-14
3.73408e-17
6.72974e-20
9.97481e-23
1.22831e-25
1.26731e-28
1.1093e-31
8.52706e-35
6.18983e-38
4.75613e-41
3.8065e-44
2.56212e-47
1.30077e-50
4.89308e-54
1.38241e-57
3.05795e-61
5.95554e-63
8.31253e-61
8.35805e-55
2.52279e-56
5.51344e-58
1.17214e-59
0.259193
0.0371117
0.00365947
0.000275994
3.2257e-05
2.81904e-07
1.53601e-09
5.77998e-12
1.60944e-14
3.47946e-17
6.03695e-20
8.60603e-23
1.02535e-25
1.03759e-28
9.10464e-32
7.14957e-35
5.26053e-38
3.76616e-41
2.58424e-44
1.63892e-47
9.44559e-51
4.92926e-54
2.3254e-57
9.87531e-61
1.51953e-64
-1.17263e-60
4.24997e-53
4.67236e-54
2.30608e-55
7.74433e-57
0.259193
0.037113
0.00365991
0.000275999
3.22385e-05
2.80912e-07
1.52115e-09
5.66093e-12
1.55019e-14
3.27904e-17
5.5495e-20
7.71092e-23
8.98752e-26
8.95629e-29
7.79633e-32
6.07515e-35
4.34974e-38
2.87502e-41
1.03102e-44
-1.22506e-46
-2.10321e-48
-3.2755e-50
-5.02056e-52
-7.48498e-54
-1.07858e-55
-1.09708e-56
1.68927e-49
1.26616e-50
4.5468e-52
1.20949e-53
0.259191
0.0371124
0.00365952
0.000275864
3.21895e-05
2.79447e-07
1.50294e-09
5.5406e-12
1.4983e-14
3.12105e-17
5.19356e-20
7.12921e-23
8.16021e-26
-9.8563e-29
-7.33554e-30
-2.16838e-31
-5.41429e-33
-1.22281e-34
-2.56745e-36
-5.05424e-38
-9.43408e-40
-1.68757e-41
-2.91073e-43
-4.78353e-45
-7.6411e-47
-1.16468e-48
1.28095e-45
5.44634e-47
1.30989e-48
2.56573e-50
0.259188
0.0371106
0.0036591
0.000275678
1.68567e-05
8.69074e-07
3.88883e-08
1.54169e-09
5.50071e-11
1.78871e-12
5.35538e-14
1.48899e-15
3.87365e-17
9.49297e-19
2.20573e-20
4.88669e-22
1.03748e-23
2.11733e-25
4.15969e-27
7.86372e-29
1.43015e-30