/*--------------------------------*- C++ -*----------------------------------*\
  =========                 |
  \\      /  F ield         | OpenFOAM: The Open Source CFD Toolbox
   \\    /   O peration     | Website:  https://openfoam.org
    \\  /    A nd           | Version:  10
     \\/     M anipulation  |
\*---------------------------------------------------------------------------*/
FoamFile
{
    format      ascii;
    class       volScalarField;
    location    "1";
    object      T;
}
// * * * * * * * * * * * * * * * * * * * * * * * * * * * * * * * * * * * * * //

dimensions      [0 0 0 1 0 0 0];

internalField   nonuniform List<scalar> 
96305
(
0.181315
0.0174037
0.00112575
5.46439e-05
2.11808e-06
6.83104e-08
1.8867e-09
4.55863e-11
9.79672e-13
1.8979e-14
3.35135e-16
5.44472e-18
8.20445e-20
1.15492e-21
1.52849e-23
1.91252e-25
2.27307e-27
2.57537e-29
2.7883e-31
2.88881e-33
2.86639e-35
2.72452e-37
2.48113e-39
2.16481e-41
1.80974e-43
1.45029e-45
1.11396e-47
8.20134e-50
5.7974e-52
3.92772e-54
0.181317
0.0174021
0.0011254
5.46127e-05
2.1165e-06
6.82588e-08
1.88533e-09
4.55487e-11
9.78645e-13
1.89524e-14
3.34499e-16
5.43063e-18
8.17613e-20
1.14981e-21
1.52034e-23
1.90121e-25
2.25952e-27
2.5615e-29
2.77643e-31
2.88087e-33
2.86347e-35
2.72674e-37
2.48782e-39
2.17493e-41
1.82161e-43
1.46209e-45
1.12456e-47
8.28508e-50
5.85742e-52
3.96688e-54
0.181318
0.0173998
0.00112489
5.45656e-05
2.11431e-06
6.82016e-08
1.88423e-09
4.55286e-11
9.78311e-13
1.89474e-14
3.34364e-16
5.4256e-18
8.16084e-20
1.14625e-21
1.51387e-23
1.89211e-25
2.25005e-27
2.55565e-29
2.77833e-31
2.89286e-33
2.88539e-35
2.75588e-37
2.52033e-39
2.20661e-41
1.84883e-43
1.48252e-45
1.13829e-47
8.36502e-50
5.89353e-52
3.97188e-54
0.18132
0.0173917
0.00112313
5.43979e-05
2.1062e-06
6.79119e-08
1.87588e-09
4.5303e-11
9.72973e-13
1.88374e-14
3.32314e-16
5.38955e-18
8.10041e-20
1.13706e-21
1.5025e-23
1.88371e-25
2.25625e-27
2.59377e-29
2.86666e-31
3.04484e-33
3.10523e-35
3.03829e-37
2.85201e-39
2.56848e-41
2.21743e-43
1.83438e-45
1.45032e-47
1.09184e-49
7.84884e-52
5.37932e-54
0.181336
0.0173672
0.00111784
5.33245e-05
3.32316e-06
6.34722e-09
7.29929e-12
7.40197e-15
3.35147e-17
4.61947e-19
6.24208e-21
7.46586e-23
7.67297e-25
6.16228e-27
2.18127e-29
-5.02537e-31
-1.61321e-32
-3.08522e-34
-4.80981e-36
-6.6461e-38
-8.45918e-40
-1.01034e-41
9.44908e-43
2.73184e-44
3.63683e-46
3.7793e-48
1.04722e-50
1.19957e-52
1.14054e-54
9.4911e-57
0.181337
0.0173571
0.00111555
5.31216e-05
3.31063e-06
6.43017e-09
7.55994e-12
6.24279e-15
3.95182e-18
1.99883e-21
8.27704e-25
2.84422e-28
7.74306e-32
-4.59459e-35
-6.3234e-37
2.46542e-33
-7.15205e-35
-1.83071e-36
-9.3658e-39
-6.5939e-42
-1.72758e-45
-2.05882e-49
1.81428e-49
2.77647e-50
7.77279e-52
1.16685e-53
5.63229e-54
1.00969e-55
1.21628e-57
1.16448e-59
0.181338
0.0173493
0.0011136
5.29034e-05
3.28734e-06
6.35107e-09
7.41601e-12
6.07463e-15
3.82031e-18
1.91835e-21
7.84402e-25
2.63289e-28
7.28282e-32
1.6726e-35
3.52986e-33
1.59094e-28
-5.49288e-30
-2.49595e-31
-1.825e-33
-1.87539e-36
-9.38492e-40
-2.76073e-43
-3.06712e-47
1.00711e-51
2.35172e-55
4.56242e-59
-2.75315e-55
-6.37152e-57
-8.99108e-59
-1.00771e-60
0.181336
0.0173384
0.00111083
5.25791e-05
3.24912e-06
6.18344e-09
7.07636e-12
5.6767e-15
3.50346e-18
1.7278e-21
6.90103e-25
2.2292e-28
5.77304e-32
1.16076e-35
-7.05196e-30
4.80928e-24
-1.87262e-25
-1.45134e-26
-1.28613e-28
-1.64383e-31
-1.16238e-34
-5.53375e-38
-1.59915e-41
-2.00872e-45
-1.3229e-50
3.57141e-53
-8.67684e-52
-9.57721e-54
-1.02781e-55
-1.00492e-57
0.181335
0.0173217
0.00110651
5.20512e-05
3.18361e-06
5.88106e-09
6.46213e-12
4.96563e-15
2.94981e-18
1.41098e-21
5.44991e-25
1.63673e-28
3.53191e-32
-1.85494e-33
-6.10642e-25
6.74824e-20
-1.11213e-22
-2.70734e-25
-2.21642e-27
-4.69855e-31
9.37753e-36
-4.80865e-39
-7.60625e-43
-1.14793e-45
-5.93857e-49
-1.18467e-52
-3.56463e-54
-3.56402e-56
-3.53467e-58
-3.16691e-60
0.181328
0.0172965
0.00109986
5.12158e-05
3.07619e-06
5.3742e-09
5.44969e-12
3.82949e-15
2.09936e-18
9.03283e-22
2.71131e-25
4.89183e-29
4.65915e-33
2.63816e-30
-3.53688e-21
8.62741e-18
-2.75255e-19
-9.29612e-30
-2.90309e-35
-4.45048e-40
-6.14059e-46
6.46933e-49
-5.5207e-53
-8.80997e-53
-5.85504e-55
-4.92778e-59
-3.51557e-57
-4.11907e-59
-4.18279e-61
-3.43086e-63
0.181317
0.0172604
0.00109015
4.9975e-05
2.91209e-06
4.59913e-09
3.97913e-12
2.29699e-15
9.70797e-19
3.0356e-22
8.46733e-26
2.37169e-29
6.29963e-33
6.15122e-26
1.0587e-17
2.09864e-13
-7.24963e-14
1.3482e-69
2.40308e-59
-5.43773e-63
-3.33258e-63
3.08864e-64
8.78264e-65
-2.93817e-61
-6.45978e-63
-1.02282e-64
-5.84031e-66
0.181304
0.0172126
0.00107723
4.82958e-05
2.68392e-06
3.55726e-09
2.24216e-12
7.87266e-16
2.26478e-19
2.10063e-22
3.16157e-25
2.8696e-28
1.60098e-31
-1.79612e-28
1.71568e-20
4.3874e-17
-9.91536e-18
-6.33081e-80
5.55485e-67
7.32277e-65
1.78498e-67
5.02675e-71
-2.23698e-68
5.53834e-63
-4.76286e-63
-1.05333e-64
-1.77953e-66
0.181286
0.0171583
0.00106229
4.63357e-05
2.4104e-06
2.4051e-09
7.64046e-13
6.29985e-17
-5.7165e-23
-1.13456e-25
-6.74368e-29
1.01188e-30
3.02218e-34
4.56493e-32
2.88613e-24
1.74459e-20
-5.93967e-22
-3.31298e-75
-3.57138e-61
2.34838e-59
3.45924e-62
8.8182e-66
6.3793e-70
1.02905e-63
5.60842e-66
2.67649e-68
-3.09392e-70
0.181273
0.0171087
0.00104861
4.45332e-05
2.15102e-06
1.46455e-09
9.77273e-14
-5.2249e-19
-1.91887e-48
-7.69907e-32
-1.35506e-26
9.20097e-24
7.20328e-28
3.87647e-40
-4.77413e-50
5.73872e-51
-1.05883e-56
3.3449e-52
1.68769e-54
1.41449e-57
4.07274e-61
5.39276e-65
5.68809e-61
3.11892e-63
1.13981e-65
3.75635e-68
0.18126
0.0170784
0.00104033
4.34484e-05
1.98459e-06
9.69983e-10
4.90433e-16
-4.37181e-20
-1.36146e-43
-3.2949e-32
-2.95718e-28
-3.6604e-29
1.39773e-28
1.07659e-31
4.41382e-35
1.08591e-38
1.73816e-42
2.11273e-46
1.95356e-50
1.34066e-54
1.8468e-58
7.97683e-62
3.4568e-59
2.86602e-61
1.40806e-63
6.02865e-66
0.18126
0.0170786
0.00104033
4.34466e-05
1.96244e-06
8.81608e-10
4.06397e-16
-4.48351e-20
-8.10322e-46
-2.26227e-37
-3.6214e-34
8.70011e-36
1.93117e-35
2.23351e-38
1.50824e-41
6.15196e-45
1.63478e-48
3.187e-52
9.69609e-56
2.62787e-59
3.594e-63
5.50832e-67
2.4247e-62
2.32494e-64
1.23059e-66
5.64169e-69
0.181271
0.0171082
0.00104852
4.45239e-05
2.09245e-06
1.17504e-09
6.59818e-15
-7.02449e-20
-1.22891e-52
-1.95207e-42
2.22965e-43
2.71406e-42
3.67935e-42
-1.0192e-43
-4.14441e-47
3.82869e-50
6.054e-55
2.98519e-59
4.23686e-60
1.473e-62
6.82396e-66
1.12088e-69
8.23007e-65
6.80491e-67
3.21348e-69
1.3193e-71
0.181286
0.0171579
0.00106218
4.6321e-05
2.33561e-06
1.92396e-09
3.33825e-13
-1.13399e-18
8.18445e-27
1.04341e-35
-1.29513e-39
4.29899e-42
2.28319e-49
1.51658e-42
8.88064e-44
-3.58206e-49
-4.0163e-57
3.40066e-63
-1.99672e-62
7.97181e-63
-5.14614e-70
-7.6687e-65
5.39338e-64
1.56816e-66
5.77094e-70
6.82036e-74
2.01396e-67
1.50962e-69
6.91159e-72
2.87949e-74
0.181302
0.017212
0.00107706
4.82756e-05
2.61405e-06
3.02556e-09
1.44421e-12
3.0881e-16
1.49524e-19
3.85355e-22
4.17291e-25
2.03337e-28
5.35204e-32
9.69614e-36
1.21764e-39
-1.49552e-45
2.74535e-55
1.06712e-85
1.30192e-75
5.34288e-70
1.18575e-71
7.51372e-75
7.62544e-77
3.43943e-70
2.4324e-72
1.05697e-74
3.97538e-77
0.181317
0.0172595
0.00108997
4.99509e-05
2.85749e-06
4.14557e-09
3.13056e-12
1.48449e-15
5.02585e-19
1.7839e-22
8.99299e-26
7.83566e-29
5.08767e-32
1.76695e-35
2.72021e-39
-5.16883e-44
1.79479e-53
6.39177e-94
2.38572e-81
1.72316e-76
2.74853e-77
3.6287e-80
4.18978e-78
4.27007e-73
2.87798e-75
1.09995e-77
3.11292e-80
0.181326
0.0172951
0.00109955
5.11866e-05
3.03656e-06
5.0382e-09
4.75679e-12
3.07491e-15
1.5253e-18
5.46907e-22
1.29125e-25
2.10239e-29
2.56908e-33
2.44252e-37
1.85863e-41
-8.3259e-45
1.88112e-54
-5.77131e-94
-6.54622e-78
-4.01828e-83
2.71201e-83
1.02788e-85
2.56137e-81
3.78014e-76
1.08392e-77
3.70482e-78
4.50784e-79
0.181351
0.0173227
0.00110642
5.20293e-05
3.15619e-06
5.65053e-09
5.97126e-12
4.39748e-15
2.51357e-18
1.15889e-21
4.14295e-25
1.03246e-28
1.53897e-32
1.10314e-36
3.51206e-41
-1.50725e-44
6.11831e-52
-1.62664e-62
3.11204e-67
-3.0353e-70
-6.458e-72
-1.36112e-71
-2.53213e-76
3.46806e-81
-1.6168e-80
-1.9674e-75
7.27179e-72
1.96724e-73
3.73816e-73
4.63808e-74
0.181321
0.0173378
0.00111065
5.25509e-05
3.23034e-06
6.0299e-09
6.74831e-12
5.28633e-15
3.18921e-18
1.53866e-21
5.99816e-25
1.87058e-28
4.53117e-32
8.03371e-36
9.31408e-40
6.31291e-44
5.59126e-48
3.35391e-50
2.95109e-53
1.037e-56
2.30394e-60
3.6635e-64
4.12768e-68
3.12727e-72
1.63803e-76
-2.73562e-72
2.51972e-66
7.87383e-68
1.35198e-67
1.71304e-68
0.181338
0.017347
0.0011133
5.28752e-05
3.27378e-06
6.24558e-09
7.19302e-12
5.8074e-15
3.59824e-18
1.77812e-21
7.12311e-25
2.31858e-28
6.12273e-32
1.31294e-35
2.32311e-39
3.50211e-43
4.52865e-47
5.45515e-51
7.6112e-55
1.24733e-58
1.65348e-62
-3.7445e-65
-6.31564e-67
-4.10732e-67
1.10908e-67
-9.3647e-67
8.47905e-61
2.35768e-62
5.631e-63
1.81724e-64
0.181337
0.0173565
0.00111534
5.30913e-05
3.30105e-06
6.37001e-09
7.43964e-12
6.09132e-15
3.82304e-18
1.91348e-21
7.80565e-25
2.62556e-28
7.34278e-32
1.72555e-35
3.46028e-39
3.57348e-43
-2.82285e-45
-2.98318e-47
-2.85912e-49
-2.55521e-51
-2.17759e-53
-1.88533e-55
-3.11523e-57
-1.80979e-57
6.91933e-58
6.43218e-59
2.79847e-55
6.38057e-57
9.59378e-59
1.19838e-60
0.181336
0.0173664
0.00111763
5.32972e-05
3.31182e-06
6.36474e-09
7.40939e-12
6.04839e-15
3.77558e-18
1.86618e-21
4.62194e-25
-5.43444e-27
-9.27846e-29
-1.39183e-30
-1.92274e-32
-2.50736e-34
-3.09487e-36
-3.60053e-38
-4.04897e-40
-4.33433e-42
-4.48212e-44
-4.52799e-46
-4.45071e-48
-6.6425e-50
2.26116e-50
6.14087e-52
2.07533e-51
2.80157e-53
3.01642e-55
2.86966e-57
0.18132
0.0173909
0.00112292
5.43711e-05
2.10398e-06
6.77807e-08
1.86982e-09
4.50745e-11
9.65719e-13
1.86374e-14
3.27458e-16
5.28441e-18
7.89328e-20
1.1e-21
1.44134e-23
1.79e-25
2.12123e-27
2.4102e-29
2.6295e-31
2.7521e-33
2.75957e-35
2.6493e-37
2.43528e-39
2.14545e-41
1.81446e-43
1.47532e-45
1.1518e-47
8.61411e-50
6.18449e-52
4.25658e-54
0.181318
0.0173991
0.00112468
5.45378e-05
2.11202e-06
6.80651e-08
1.87792e-09
4.52894e-11
9.70703e-13
1.87378e-14
3.2928e-16
5.31565e-18
7.94615e-20
1.10777e-21
1.45032e-23
1.79455e-25
2.11009e-27
2.36646e-29
2.53642e-31
2.5998e-33
2.54803e-35
2.38802e-37
2.14109e-39
1.83848e-41
1.51296e-43
1.19475e-45
9.06095e-48
6.60602e-50
4.63804e-52
3.13347e-54
0.181317
0.0174014
0.0011252
5.45861e-05
2.11427e-06
6.81246e-08
1.87912e-09
4.53135e-11
9.71166e-13
1.87467e-14
3.29555e-16
5.32321e-18
7.96619e-20
1.11232e-21
1.45874e-23
1.80682e-25
2.12445e-27
2.37974e-29
2.54549e-31
2.6034e-33
2.54749e-35
2.38612e-37
2.14087e-39
1.84173e-41
1.5208e-43
1.2063e-45
9.2015e-48
6.75216e-50
4.77447e-52
3.25238e-54
0.181315
0.017403
0.00112554
5.46167e-05
2.11581e-06
6.81749e-08
1.88047e-09
4.53516e-11
9.72243e-13
1.87755e-14
3.3023e-16
5.33951e-18
7.99906e-20
1.1184e-21
1.46845e-23
1.82107e-25
2.14264e-27
2.40075e-29
2.56791e-31
2.62607e-33
2.57004e-35
2.40868e-37
2.16347e-39
1.86403e-41
1.54178e-43
1.22578e-45
9.37164e-48
6.89563e-50
4.89197e-52
3.34429e-54
0.181367
0.0177503
0.00119583
6.17891e-05
2.60179e-06
9.28228e-08
2.88284e-09
7.95042e-11
1.97704e-12
4.48756e-14
9.39062e-16
1.82671e-17
3.32661e-19
5.70573e-21
9.26584e-23
1.43102e-24
2.10931e-26
2.97524e-28
4.02301e-30
5.21953e-32
6.50105e-34
7.77346e-36
8.92303e-38
9.83234e-40
1.04007e-41
1.05655e-43
1.03083e-45
9.66552e-48
8.72315e-50
7.56938e-52
0.181366
0.0177517
0.00119625
6.18448e-05
2.60641e-06
9.30951e-08
2.89505e-09
7.99489e-11
1.99087e-12
4.52547e-14
9.48402e-16
1.8478e-17
3.3707e-19
5.79253e-21
9.42831e-23
1.46021e-24
2.15984e-26
3.05934e-28
4.15664e-30
5.42123e-32
6.78954e-34
8.16364e-36
9.42291e-38
1.04388e-39
1.10975e-41
1.13249e-43
1.10973e-45
1.04452e-47
9.45908e-50
8.23295e-52
0.181363
0.017755
0.0011972
6.19679e-05
2.61662e-06
9.36938e-08
2.92195e-09
8.09462e-11
2.02273e-12
4.61548e-14
9.71203e-16
1.9003e-17
3.48201e-19
6.01303e-21
9.84127e-23
1.53413e-24
2.28697e-26
3.2692e-28
4.48772e-30
5.91784e-32
7.49674e-34
9.1184e-36
1.06467e-37
1.19265e-39
1.28159e-41
1.32072e-43
1.30595e-45
1.23944e-47
1.1308e-49
9.90723e-52
0.181356
0.01776
0.00119884
6.22062e-05
2.63668e-06
9.4739e-08
2.96502e-09
8.24244e-11
2.06674e-12
4.73135e-14
9.98604e-16
1.9589e-17
3.59664e-19
6.22108e-21
1.01993e-22
1.59389e-24
2.38557e-26
3.43026e-28
4.74449e-30
6.31079e-32
8.06751e-34
9.90399e-36
1.16703e-37
1.31892e-39
1.42878e-41
1.48268e-43
1.47416e-45
1.40517e-47
1.28654e-49
1.13104e-51
0.181349
0.0177637
0.00120072
6.25693e-05
5.13135e-06
2.17442e-08
5.75958e-11
1.07368e-13
1.97562e-16
1.21917e-18
1.84615e-20
2.90758e-22
4.32086e-24
6.03527e-26
7.91607e-28
9.82537e-30
1.07306e-31
9.55121e-34
5.84342e-36
-6.01369e-39
-9.93757e-40
-2.13722e-41
-3.34222e-43
-4.60102e-45
2.81163e-45
1.02527e-46
4.80686e-49
7.53532e-51
9.55555e-53
1.05165e-54
0.18134
0.0177691
0.00120252
6.28197e-05
5.17208e-06
2.20992e-08
5.89184e-11
1.08003e-13
1.45099e-16
1.49804e-19
1.23021e-22
8.24634e-26
4.60569e-29
2.15975e-32
1.40642e-29
1.68823e-26
1.6907e-28
5.32459e-31
1.00724e-33
1.70576e-36
2.05214e-39
1.68659e-42
9.87471e-46
4.29249e-49
2.10587e-52
1.93192e-53
1.23776e-52
3.20776e-54
5.39206e-56
7.15012e-58
0.181332
0.0177736
0.00120379
6.29801e-05
5.19708e-06
2.2352e-08
6.01395e-11
1.11525e-13
1.5198e-16
1.59518e-19
1.33257e-22
9.06689e-26
5.11474e-29
2.70984e-32
5.12177e-25
4.87553e-22
8.43179e-25
-1.0325e-26
-3.28733e-29
-1.82692e-32
6.26015e-36
1.54931e-38
1.1904e-41
6.00709e-45
2.34098e-48
7.41125e-52
-9.35702e-50
-1.83482e-51
-2.3034e-53
-2.40285e-55
0.18132
0.0177764
0.00120465
6.30817e-05
5.21185e-06
2.25028e-08
6.09595e-11
1.14311e-13
1.584e-16
1.6992e-19
1.45381e-22
1.01019e-25
5.7657e-29
2.66634e-29
7.45233e-21
3.86913e-18
-6.54644e-20
-1.04885e-21
-3.08065e-24
-2.91376e-27
-2.06512e-30
-1.00968e-33
-8.98216e-38
1.40168e-40
9.24989e-44
3.75564e-47
-1.56712e-46
-1.85335e-48
-1.96443e-50
-1.887e-52
0.181306
0.017777
0.0012049
6.30941e-05
5.21086e-06
2.24964e-08
6.11291e-11
1.15726e-13
1.63421e-16
1.80322e-19
1.59377e-22
1.13842e-25
6.5658e-29
4.65349e-26
4.36345e-17
-9.20726e-15
-8.60943e-17
-3.78728e-17
-7.29395e-20
-8.18211e-23
-1.23546e-28
-4.2877e-34
-5.13134e-38
-1.18474e-40
-1.02854e-43
-4.24706e-47
-6.05439e-49
-6.07398e-51
-5.92968e-53
-5.34215e-55
0.181284
0.0177738
0.00120413
6.29566e-05
5.18314e-06
2.22061e-08
5.99978e-11
1.13844e-13
1.63518e-16
1.86327e-19
1.70732e-22
1.24564e-25
6.65454e-29
-4.26756e-22
1.00985e-13
1.46414e-10
-3.12543e-12
-4.16359e-24
-9.41925e-32
-1.00168e-32
1.02588e-39
4.54061e-43
-6.84664e-50
-3.54818e-49
-7.09727e-50
-9.24323e-53
-5.39753e-52
-6.53797e-54
-6.88027e-56
-6.14737e-58
0.181256
0.0177648
0.00120185
6.25896e-05
5.1129e-06
2.14381e-08
5.65266e-11
1.05479e-13
1.52607e-16
1.81001e-19
1.76216e-22
1.38842e-25
1.13098e-28
8.16298e-21
1.46228e-13
0.000292758
-1.0189e-06
-1.44443e-57
6.86233e-53
-2.70336e-59
-4.16172e-59
-7.57969e-59
9.24616e-60
-9.77689e-56
-2.24237e-57
-3.15612e-59
-3.16299e-61
0.181222
0.0177494
0.0011976
6.19217e-05
4.98506e-06
2.00031e-08
4.97265e-11
8.79651e-14
1.2771e-16
1.68461e-19
1.9623e-22
1.77963e-25
1.17026e-28
-2.90174e-23
-1.0232e-15
2.36873e-07
-2.26342e-10
-7.65333e-65
1.35981e-60
7.54984e-59
1.05197e-61
5.86972e-65
1.3063e-64
3.54094e-59
-1.42377e-59
-3.35217e-61
-5.18994e-63
0.181186
0.0177281
0.00119167
6.09862e-05
4.80182e-06
1.79064e-08
3.96858e-11
1.17761e-13
2.14593e-18
3.53166e-23
1.48643e-26
2.18562e-29
2.81718e-33
-1.52581e-25
6.23227e-17
3.25158e-10
-1.98391e-14
-6.16632e-62
1.35897e-52
6.28573e-53
4.1703e-56
7.49554e-60
6.61661e-64
1.74041e-60
9.91002e-63
5.6751e-65
-6.75391e-67
0.181155
0.0177067
0.00118563
6.00233e-05
4.60727e-06
1.56646e-08
2.9062e-11
5.89774e-14
-3.22359e-37
-3.45538e-24
-7.12062e-20
1.453e-15
1.77719e-18
-5.92312e-32
-1.36074e-38
-4.90991e-42
5.30051e-50
1.35613e-44
1.58964e-47
5.69828e-51
9.8001e-55
9.33407e-59
1.93036e-57
8.13484e-60
2.56842e-62
7.37023e-65
0.181134
0.0176926
0.00118174
5.94085e-05
4.4762e-06
1.41659e-08
2.26742e-11
3.06125e-14
-9.60194e-34
-6.43357e-25
-1.93265e-21
2.27164e-20
-1.11166e-23
6.20204e-27
2.7335e-30
7.12845e-34
1.13099e-37
1.39223e-41
2.34564e-45
1.32574e-47
6.64286e-51
1.12155e-54
3.84655e-55
2.03536e-57
7.54993e-60
2.44367e-62
0.181136
0.0176928
0.00118174
5.94062e-05
4.46189e-06
1.39101e-08
2.15878e-11
2.66326e-14
-4.54257e-37
-2.57699e-30
-4.30562e-27
1.57505e-26
1.97316e-29
2.06516e-32
1.91353e-35
1.02153e-38
3.2532e-42
7.61012e-46
2.34746e-49
5.48084e-53
6.88191e-56
4.7569e-59
2.92879e-58
1.83369e-60
7.61269e-63
2.65019e-65
0.181154
0.0177064
0.00118556
6.00135e-05
4.56813e-06
1.49239e-08
2.54386e-11
3.85053e-14
1.22802e-42
-1.2791e-34
1.5695e-36
-2.76046e-34
-3.70178e-34
2.17469e-38
1.11881e-42
-1.04558e-43
-6.55393e-47
4.17018e-50
2.07832e-52
1.5981e-55
4.71833e-59
6.86504e-63
3.67541e-61
2.56221e-63
1.11773e-65
3.90853e-68
0.181186
0.0177281
0.00119159
6.09737e-05
4.75294e-06
1.69353e-08
3.44894e-11
8.43496e-14
8.18129e-20
-8.22866e-33
6.02798e-39
4.37852e-38
1.21808e-51
-1.23811e-40
9.24326e-42
2.65647e-43
-1.89391e-47
-7.38485e-49
-1.24852e-53
-3.41857e-54
3.15005e-61
1.98977e-56
3.16504e-57
4.28534e-60
1.3931e-63
1.91808e-67
4.74169e-64
3.39102e-66
1.51964e-68
5.36339e-71
0.181221
0.017749
0.00119749
6.19067e-05
4.94209e-06
1.9158e-08
4.52758e-11
7.61629e-14
1.06814e-16
1.42399e-19
1.2998e-22
5.40698e-26
9.76669e-30
1.40239e-33
3.47689e-37
1.03016e-40
1.84152e-46
-3.30993e-70
1.52359e-66
2.95851e-63
2.07587e-65
1.06719e-68
1.60234e-72
5.40173e-67
3.62622e-69
1.56338e-71
5.0228e-74
0.181256
0.0177646
0.00120173
6.25745e-05
5.08199e-06
2.08537e-08
5.35561e-11
9.76152e-14
1.412e-16
1.74138e-19
1.83443e-22
1.61572e-25
1.1529e-28
6.47588e-32
2.6132e-35
5.86272e-39
1.2443e-44
-1.58708e-77
2.01244e-74
9.04566e-70
3.72856e-71
3.60718e-74
2.7125e-75
4.71072e-70
2.88832e-72
1.05231e-74
2.70123e-77
0.181291
0.0177736
0.001204
6.29428e-05
5.16299e-06
2.18527e-08
5.83617e-11
1.09906e-13
1.58186e-16
1.82684e-19
1.70254e-22
1.25712e-25
7.18687e-29
3.06981e-32
9.07944e-36
3.14709e-39
2.79394e-46
-6.26187e-86
3.18498e-77
1.59521e-76
3.0831e-77
5.56045e-80
4.60909e-78
2.66837e-73
8.28624e-74
1.69156e-74
1.37559e-75
0.181305
0.0177777
0.00120491
6.30822e-05
5.1982e-06
2.23031e-08
6.03531e-11
1.14267e-13
1.62389e-16
1.81463e-19
1.62679e-22
1.17063e-25
6.66814e-29
2.91573e-32
9.31873e-36
4.03718e-39
3.08484e-45
1.0018e-55
5.45488e-62
1.18506e-63
-3.04564e-72
5.22421e-69
2.27372e-72
2.15434e-78
5.32176e-82
3.5991e-75
-1.87805e-69
-6.27285e-69
1.08078e-69
1.88978e-70
0.181312
0.0177754
0.0012046
6.30727e-05
5.20372e-06
2.24028e-08
6.06573e-11
1.14046e-13
1.59073e-16
1.72324e-19
1.49092e-22
1.04414e-25
5.95745e-29
2.77523e-32
1.06255e-35
3.43598e-39
1.0223e-42
3.20316e-46
1.03565e-49
2.90686e-53
6.61075e-57
1.18902e-60
1.61565e-64
1.58666e-68
1.10761e-72
3.34489e-72
-1.0674e-64
-6.44933e-65
6.83779e-66
8.70068e-67
0.181331
0.0177727
0.00120365
6.29663e-05
5.19272e-06
2.23066e-08
6.00793e-11
1.11731e-13
1.53031e-16
1.61709e-19
1.36012e-22
9.2943e-26
5.23828e-29
2.46856e-32
9.93368e-36
3.53796e-39
1.17073e-42
3.69232e-46
1.07669e-49
2.78043e-53
6.26828e-57
1.23706e-60
2.02614e-64
-1.01386e-67
-1.28505e-69
4.96337e-67
-1.05639e-60
-3.65359e-61
3.35495e-62
3.22078e-63
0.18134
0.0177691
0.00120246
6.28103e-05
5.16983e-06
2.21107e-08
5.90914e-11
1.08676e-13
1.46611e-16
1.52037e-19
1.25327e-22
8.41725e-26
4.69535e-29
2.21632e-32
9.03992e-36
3.27202e-39
1.06173e-42
4.51074e-47
-3.3599e-48
-3.89548e-50
-4.21674e-52
-4.50557e-54
-4.76767e-56
-4.94033e-58
-4.88826e-60
1.16851e-61
-1.36009e-55
-4.76824e-57
3.23216e-58
1.84406e-59
0.181349
0.0177636
0.00120067
6.25597e-05
5.13342e-06
2.17794e-08
5.7615e-11
1.0473e-13
1.3936e-16
1.4233e-19
1.14873e-22
6.07021e-26
-2.61909e-28
-5.32301e-30
-8.81576e-32
-1.3557e-33
-2.00376e-35
-2.81411e-37
-3.76817e-39
-4.82405e-41
-5.93061e-43
-7.06984e-45
-8.13303e-47
-9.07609e-49
-9.70904e-51
-1.0043e-52
-4.20367e-50
-1.06765e-52
5.30217e-54
1.3902e-55
0.181356
0.0177598
0.00119879
6.21977e-05
2.63581e-06
9.46774e-08
2.9615e-09
8.22664e-11
2.0606e-12
4.7107e-14
9.92375e-16
1.94233e-17
3.55662e-19
6.13202e-21
1.00162e-22
1.55884e-24
2.32272e-26
3.32417e-28
4.57503e-30
6.05304e-32
7.69486e-34
9.39247e-36
1.10107e-37
1.24002e-39
1.34271e-41
1.39822e-43
1.40108e-45
1.35129e-47
1.25599e-49
1.12335e-51
0.181362
0.0177548
0.00119713
6.19587e-05
2.61572e-06
9.36307e-08
2.91853e-09
8.07919e-11
2.01688e-12
4.59595e-14
9.65442e-16
1.88519e-17
3.44559e-19
5.93257e-21
9.6762e-23
1.50263e-24
2.23085e-26
3.17496e-28
4.33809e-30
5.69401e-32
7.17937e-34
8.69383e-36
1.0115e-37
1.13087e-39
1.21545e-41
1.2566e-43
1.25013e-45
1.19722e-47
1.10501e-49
9.8145e-52
0.181366
0.0177516
0.00119621
6.18367e-05
2.60559e-06
9.3036e-08
2.89175e-09
7.97998e-11
1.98522e-12
4.50676e-14
9.43031e-16
1.83344e-17
3.33671e-19
5.71785e-21
9.27812e-23
1.43191e-24
2.10988e-26
2.9766e-28
4.02774e-30
5.23203e-32
6.52666e-34
7.82132e-36
9.00513e-38
9.96545e-40
1.06058e-41
1.08569e-43
1.06973e-45
1.01461e-47
9.27654e-50
8.16765e-52
0.181367
0.0177501
0.00119578
6.17811e-05
2.60094e-06
9.27622e-08
2.87951e-09
7.93559e-11
1.97143e-12
4.4691e-14
9.33701e-16
1.81288e-17
3.29364e-19
5.6344e-21
9.12185e-23
1.40409e-24
2.06221e-26
2.89789e-28
3.90358e-30
5.04565e-32
6.26322e-34
7.4675e-36
8.55626e-38
9.42422e-40
9.98165e-42
1.01743e-43
9.9806e-46
9.42758e-48
8.58652e-50
7.53335e-52
0.181287
0.0176371
0.00117332
5.95038e-05
2.44686e-06
8.49156e-08
2.55806e-09
6.82988e-11
1.64241e-12
3.60301e-14
7.28624e-16
1.3702e-17
2.41389e-19
4.00921e-21
6.31239e-23
9.46492e-25
1.3566e-26
1.86383e-28
2.45921e-30
3.11946e-32
3.80685e-34
4.47002e-36
5.05088e-38
5.49262e-40
5.74931e-42
5.79425e-44
5.62343e-46
5.25893e-48
4.7454e-50
4.13052e-52
0.181288
0.0176374
0.0011734
5.95173e-05
2.44815e-06
8.50002e-08
2.56225e-09
6.84645e-11
1.64787e-12
3.61863e-14
7.32604e-16
1.37938e-17
2.43344e-19
4.04835e-21
6.38697e-23
9.60153e-25
1.38068e-26
1.90448e-28
2.52446e-30
3.21865e-32
3.94886e-34
4.66226e-36
5.29754e-38
5.7918e-40
6.09349e-42
6.17085e-44
6.01619e-46
5.64943e-48
5.11696e-50
4.46931e-52
0.181288
0.0176381
0.00117359
5.9545e-05
2.45078e-06
8.51749e-08
2.57088e-09
6.88053e-11
1.65922e-12
3.65153e-14
7.41091e-16
1.3992e-17
2.47608e-19
4.13424e-21
6.55163e-23
9.90425e-25
1.4342e-26
1.99514e-28
2.67048e-30
3.44108e-32
4.26849e-34
5.09641e-36
5.85647e-38
6.47363e-40
6.8835e-42
7.04067e-44
6.93008e-46
6.56624e-48
5.99748e-50
5.27976e-52
0.181289
0.0176388
0.0011738
5.95809e-05
2.45447e-06
8.5357e-08
2.57959e-09
6.91615e-11
1.67149e-12
3.68778e-14
7.50486e-16
1.42085e-17
2.52147e-19
4.22296e-21
6.71245e-23
1.00052e-24
1.42483e-26
1.97564e-28
2.65742e-30
3.45068e-32
4.31821e-34
5.20342e-36
6.03498e-38
6.73217e-40
7.21918e-42
7.43931e-44
7.36958e-46
7.02109e-48
6.4417e-50
5.69349e-52
0.18129
0.0176392
0.00117389
5.96169e-05
4.76505e-06
1.92297e-08
4.79031e-11
8.37937e-14
1.48617e-16
9.27329e-19
1.35973e-20
2.04554e-22
2.89394e-24
3.84009e-26
2.54965e-28
-3.68719e-25
-1.02299e-26
-6.40695e-29
-1.58634e-31
-2.10171e-34
-1.77826e-37
-1.17058e-40
-2.34329e-43
5.10105e-44
3.6499e-45
6.78105e-47
2.74421e-49
4.16928e-51
5.2138e-53
5.70658e-55
0.18129
0.0176393
0.001174
5.96443e-05
4.77339e-06
1.93491e-08
4.84315e-11
8.3217e-14
1.05259e-16
1.02986e-19
8.08214e-23
5.229e-26
2.85057e-29
-2.3653e-31
-2.58403e-23
-4.2584e-20
-1.02739e-21
-5.73771e-24
-1.33744e-26
-1.77367e-29
-1.58538e-32
-1.03636e-35
-5.10273e-39
-1.98162e-42
-6.71629e-46
-1.99081e-49
-8.18001e-49
-7.87183e-51
-7.3249e-53
-6.50325e-55
0.18129
0.0176386
0.0011739
5.96474e-05
4.77789e-06
1.94398e-08
4.89902e-11
8.50614e-14
1.09167e-16
1.08799e-19
8.71859e-23
5.7608e-26
3.20098e-29
-1.01573e-26
-1.23516e-18
-1.94624e-15
-3.53222e-17
-1.60626e-19
-3.43986e-22
-4.58383e-25
-4.38936e-28
-3.21107e-31
-1.80768e-34
-8.53624e-38
-3.46058e-41
-1.20499e-44
-4.24606e-44
-3.83416e-46
-3.36058e-48
-2.81862e-50
0.181288
0.0176363
0.00117338
5.95976e-05
4.77482e-06
1.94744e-08
4.93893e-11
8.67764e-14
1.13501e-16
1.16094e-19
9.59374e-23
6.54102e-26
3.69868e-29
-1.62189e-22
-2.39551e-14
-3.22097e-11
-2.99077e-13
-9.21062e-16
-1.88955e-18
-2.86788e-21
-3.3304e-24
-3.04875e-27
-2.23751e-30
-1.35552e-33
-6.84558e-37
-2.87834e-40
-2.16308e-41
-2.04954e-43
-1.85561e-45
-1.59317e-47
0.181282
0.0176312
0.00117213
5.94553e-05
4.75834e-06
1.94017e-08
4.94232e-11
8.79538e-14
1.17911e-16
1.25203e-19
1.08372e-22
7.75449e-26
-1.92165e-27
-1.01482e-18
-1.87245e-10
-1.50601e-07
-1.23958e-09
8.20393e-13
8.1887e-16
7.08278e-19
6.30447e-25
2.11529e-30
-4.0233e-34
-8.52671e-36
-1.07542e-38
-6.26302e-42
-6.14481e-44
-5.11479e-46
-4.42104e-48
-3.71889e-50
0.181273
0.0176218
0.00116979
5.91667e-05
4.71948e-06
1.91313e-08
4.86953e-11
8.76064e-14
1.21086e-16
1.35619e-19
1.25829e-22
9.68957e-26
-5.01355e-24
-2.80088e-15
-7.04803e-07
-0.00333005
-3.67249e-05
-8.26521e-18
-1.59046e-25
-7.63096e-28
-3.43009e-36
-4.14338e-39
-1.22871e-43
-1.00548e-44
-3.68278e-45
-9.9339e-48
-4.23273e-47
-4.6338e-49
-4.60313e-51
-4.14546e-53
0.181261
0.0176066
0.00116588
5.8667e-05
4.64635e-06
1.85354e-08
4.65515e-11
8.3814e-14
1.19682e-16
1.44341e-19
1.48428e-22
1.2916e-25
-1.13421e-21
-2.32708e-13
1.52943e-05
789.996
-0.028593
-2.82255e-53
-1.068e-48
-2.48232e-53
-1.31505e-54
-5.80475e-54
-1.10481e-54
-1.39855e-50
-2.18698e-52
-2.77586e-54
-2.87495e-56
0.181242
0.0175852
0.0011602
5.7915e-05
4.52942e-06
1.7478e-08
4.21451e-11
7.33417e-14
1.05303e-16
1.4058e-19
1.68977e-22
1.49575e-25
-6.34276e-25
-2.35395e-16
3.26665e-08
1.6171
0.000365646
1.21161e-59
2.16214e-53
1.07923e-53
5.50143e-56
1.31911e-58
-4.98822e-60
1.31131e-55
-3.13154e-56
-7.89809e-58
-1.18813e-59
0.181226
0.0175592
0.00115325
5.69617e-05
4.37243e-06
1.59307e-08
3.49029e-11
1.02858e-13
1.81804e-18
2.83112e-23
1.14642e-26
7.55222e-30
1.75881e-27
-9.24163e-18
-5.47386e-09
0.00467071
5.9383e-07
-1.11664e-56
4.79578e-45
2.10962e-47
5.48659e-51
5.77215e-55
3.60887e-59
1.25724e-57
9.22439e-60
7.75639e-62
-9.86938e-64
0.181207
0.0175347
0.00114663
5.60335e-05
4.21126e-06
1.42402e-08
2.64581e-11
5.09109e-14
-1.09979e-30
-3.30215e-18
-5.09385e-12
2.73687e-08
2.63461e-11
-6.82274e-26
-4.63065e-30
-2.40635e-34
2.67457e-41
3.40569e-38
1.13983e-41
1.91408e-45
1.95044e-49
1.31546e-53
3.41678e-54
8.68567e-57
2.19533e-59
5.59905e-62
0.181196
0.0175198
0.00114255
5.5461e-05
4.10526e-06
1.31055e-08
2.13519e-11
2.80738e-14
-1.89839e-25
-1.64446e-17
-1.26928e-13
5.27663e-12
4.83236e-15
1.53039e-18
4.83849e-22
9.22024e-26
1.17246e-29
1.36279e-33
5.12083e-37
9.84464e-41
1.09837e-44
8.12381e-49
1.48362e-51
4.26286e-54
1.17614e-56
3.10938e-59
0.181197
0.0175198
0.00114251
5.54578e-05
4.09371e-06
1.29015e-08
2.04559e-11
2.49533e-14
-7.88801e-30
-1.15305e-22
-3.87456e-19
1.33575e-17
2.26657e-20
1.12086e-23
4.86547e-27
1.71109e-30
4.16846e-34
8.96687e-38
1.98311e-41
7.36284e-45
1.92039e-48
2.4007e-52
1.01961e-54
3.58834e-57
1.15334e-59
3.39826e-62
0.181207
0.0175345
0.00114653
5.60229e-05
4.1798e-06
1.36554e-08
2.344e-11
3.3953e-14
-6.51311e-35
-1.8597e-28
-2.21538e-28
3.42186e-26
-8.67113e-27
-7.45994e-32
-2.35592e-36
-1.29714e-35
-7.11345e-39
1.25812e-42
6.45961e-46
2.04102e-49
3.75555e-53
4.15791e-57
4.82351e-58
2.6416e-60
1.03576e-62
3.35821e-65
0.181223
0.0175585
0.00115312
5.69451e-05
4.33276e-06
1.51752e-08
3.06765e-11
7.17886e-14
5.74368e-20
2.63569e-32
4.72146e-39
4.94921e-38
-5.99956e-44
-1.40299e-35
-6.69748e-38
1.06695e-36
3.92882e-41
2.6104e-42
2.69381e-44
-9.61344e-47
1.35116e-52
5.29708e-49
2.52445e-51
1.53566e-54
3.63555e-58
4.4088e-62
3.32533e-61
2.14262e-63
9.29054e-66
3.15108e-68
0.181244
0.0175845
0.00116006
5.78961e-05
4.49386e-06
1.68356e-08
3.89018e-11
6.41572e-14
8.61652e-17
1.11717e-19
8.68051e-23
2.21136e-26
1.68993e-30
1.43626e-34
7.91821e-38
3.9987e-41
4.4192e-47
2.62976e-64
2.10686e-58
1.89119e-57
4.15981e-60
1.46361e-63
2.01152e-67
2.37598e-64
1.53434e-66
6.62276e-69
2.06537e-71
0.181261
0.0176062
0.00116573
5.86483e-05
4.61966e-06
1.8085e-08
4.45352e-11
7.91207e-14
1.13926e-16
1.43614e-19
1.61362e-22
1.57176e-25
1.26489e-28
8.19233e-32
3.9585e-35
1.06399e-38
2.27879e-44
-6.44812e-71
6.97109e-68
3.26438e-64
4.09567e-66
2.49691e-69
3.57497e-73
1.16091e-67
6.84792e-70
2.67762e-72
7.13598e-75
0.18128
0.0176223
0.00116967
5.91498e-05
4.70091e-06
1.88432e-08
4.75634e-11
8.55068e-14
1.19792e-16
1.38513e-19
1.3418e-22
1.08102e-25
7.17407e-29
3.83793e-32
1.53646e-35
7.26046e-39
5.80749e-46
-2.14179e-79
1.78909e-76
1.31445e-71
1.14023e-72
1.4039e-75
-6.30465e-75
3.17134e-69
9.01056e-70
7.51091e-71
3.25597e-72
0.181275
0.0176308
0.00117205
5.94378e-05
4.74619e-06
1.9221e-08
4.88142e-11
8.71065e-14
1.18165e-16
1.28169e-19
1.14102e-22
8.40597e-26
5.12418e-29
2.56666e-32
1.03779e-35
6.40899e-39
9.27245e-45
5.21226e-55
1.04595e-61
1.27615e-63
-3.28205e-73
4.8875e-69
1.55218e-73
7.61081e-76
6.60839e-80
-3.21404e-73
3.57434e-65
5.27724e-66
2.95407e-67
9.21466e-69
0.181288
0.0176344
0.00117323
5.95839e-05
4.76592e-06
1.93624e-08
4.90553e-11
8.64602e-14
1.14059e-16
1.18286e-19
9.9432e-23
6.89556e-26
3.98498e-29
1.93524e-32
7.99676e-36
2.91146e-39
1.00681e-42
3.70948e-46
1.42557e-49
4.60639e-53
1.1227e-56
2.02847e-60
2.75486e-64
2.85806e-68
2.36109e-72
-1.01959e-69
1.10564e-61
1.29197e-62
5.90756e-64
1.64327e-65
0.18129
0.0176382
0.00117373
5.96274e-05
4.77134e-06
1.93659e-08
4.87931e-11
8.49294e-14
1.09618e-16
1.10162e-19
8.91272e-23
5.9437e-26
3.3232e-29
1.58302e-32
6.55919e-36
2.44006e-39
8.53481e-43
2.91493e-46
9.57047e-50
2.91134e-53
8.06568e-57
2.02666e-60
4.5308e-64
8.08266e-69
-2.81931e-69
-6.18337e-66
3.40032e-58
3.12953e-59
1.13874e-60
2.74336e-62
0.181291
0.017639
0.00117389
5.96296e-05
4.76868e-06
1.92971e-08
4.83164e-11
8.31637e-14
1.05548e-16
1.03768e-19
8.18829e-23
5.32196e-26
2.91094e-29
1.36563e-32
5.61403e-36
2.0714e-39
6.90111e-43
3.59293e-47
-2.13742e-48
-2.45449e-50
-2.61336e-52
-2.75484e-54
-2.89722e-56
-2.97192e-58
-2.94615e-60
-1.01028e-61
1.9718e-54
1.25199e-55
3.29635e-57
6.2647e-59
0.181291
0.0176389
0.00117378
5.96014e-05
4.76142e-06
1.91953e-08
4.77315e-11
8.13781e-14
1.01982e-16
9.86961e-20
7.59067e-23
3.60608e-26
-2.08406e-28
-3.9531e-30
-6.29411e-32
-9.44356e-34
-1.34654e-35
-1.8302e-37
-2.39201e-39
-2.98986e-41
-3.6065e-43
-4.21213e-45
-4.79235e-47
-5.23906e-49
-5.59135e-51
-5.71807e-53