/*--------------------------------*- C++ -*----------------------------------*\
  =========                 |
  \\      /  F ield         | OpenFOAM: The Open Source CFD Toolbox
   \\    /   O peration     | Website:  https://openfoam.org
    \\  /    A nd           | Version:  10
     \\/     M anipulation  |
\*---------------------------------------------------------------------------*/
FoamFile
{
    format      ascii;
    class       volScalarField;
    location    "3.5";
    object      T;
}
// * * * * * * * * * * * * * * * * * * * * * * * * * * * * * * * * * * * * * //

dimensions      [0 0 0 1 0 0 0];

internalField   nonuniform List<scalar> 
96305
(
0.5035
0.154393
0.0332308
0.00544855
0.000717471
7.87397e-05
7.39801e-06
6.07211e-07
4.42365e-08
2.89799e-09
1.72578e-10
9.4282e-12
4.76304e-13
2.24093e-14
9.8812e-16
4.10624e-17
1.61568e-18
6.04091e-20
2.15157e-21
7.31047e-23
2.37163e-24
7.34834e-26
2.17498e-27
6.15002e-29
1.66166e-30
4.29643e-32
1.06297e-33
2.51621e-35
5.70824e-37
1.23813e-38
0.503515
0.154384
0.0332227
0.00544591
0.000716967
7.86794e-05
7.39239e-06
6.06694e-07
4.41898e-08
2.89399e-09
1.7226e-10
9.40463e-12
4.74718e-13
2.23136e-14
9.83029e-16
4.08274e-17
1.60635e-18
6.00938e-20
2.1427e-21
7.29107e-23
2.36934e-24
7.35438e-26
2.18079e-27
6.17839e-29
1.67295e-30
4.3348e-32
1.07476e-33
2.54803e-35
5.78557e-37
1.2548e-38
0.503526
0.154371
0.0332126
0.00544304
0.000716509
7.86428e-05
7.39056e-06
6.06583e-07
4.41826e-08
2.89353e-09
1.72198e-10
9.39599e-12
4.73823e-13
2.22438e-14
9.78812e-16
4.06299e-17
1.59949e-18
5.995e-20
2.14388e-21
7.3204e-23
2.38717e-24
7.43224e-26
2.20916e-27
6.26838e-29
1.69732e-30
4.3895e-32
1.0856e-33
2.56537e-35
5.79992e-37
1.25011e-38
0.503546
0.154302
0.0331582
0.00542439
0.000713563
7.81571e-05
7.32833e-06
5.99952e-07
4.35966e-08
2.84926e-09
1.69236e-10
9.21529e-12
4.63637e-13
2.17177e-14
9.5457e-16
3.96807e-17
1.571e-18
5.95208e-20
2.16196e-21
7.52661e-23
2.50922e-24
8.00431e-26
2.44273e-27
7.13144e-29
1.99006e-30
5.31033e-32
1.35115e-33
3.26078e-35
7.49463e-37
1.63797e-38
0.503694
0.154151
0.0330476
0.00533794
0.00108337
2.27814e-05
2.91807e-07
2.66885e-09
2.44499e-11
5.28882e-13
2.35717e-14
1.1155e-15
4.91586e-17
1.99889e-18
7.49978e-20
2.58561e-21
8.05843e-23
2.18195e-24
4.5355e-26
2.9809e-28
-3.72478e-29
-2.88004e-30
2.73409e-30
2.48302e-31
1.07386e-32
3.59864e-34
3.3735e-36
1.21023e-37
3.62166e-39
9.49935e-41
0.503715
0.15407
0.0329782
0.00531642
0.00107829
2.3027e-05
3.03133e-07
2.80179e-09
1.97362e-11
1.10352e-13
5.02403e-16
1.89204e-18
5.9743e-21
1.60841e-23
3.79552e-26
3.45065e-23
-1.53278e-22
-1.52918e-23
-5.45608e-25
-4.3603e-27
-1.56237e-29
-3.16999e-32
-4.47016e-35
2.56395e-36
2.46246e-37
1.21107e-38
5.88225e-39
3.29667e-40
1.2487e-41
3.76326e-43
0.503742
0.154022
0.0329325
0.00529816
0.00107173
2.27664e-05
2.97709e-07
2.72707e-09
1.90742e-11
1.05888e-13
4.76216e-16
1.75186e-18
5.30371e-21
1.33538e-23
-1.49807e-25
2.13549e-19
-1.24129e-18
-1.60847e-19
-8.2948e-21
-9.0867e-23
-5.43037e-25
-2.13871e-27
-4.63886e-30
-4.2819e-33
-1.789e-36
-7.43207e-40
2.70847e-37
1.79927e-38
7.10175e-40
2.22676e-41
0.50377
0.153952
0.0328632
0.00526907
0.00106041
2.22105e-05
2.84841e-07
2.55601e-09
1.75436e-11
9.56509e-14
4.20472e-16
1.49161e-18
4.24683e-21
9.62788e-24
-2.1526e-22
5.79629e-16
-4.83778e-15
-7.565e-16
-4.51747e-17
-5.59862e-19
-4.08006e-21
-2.05811e-23
-7.17517e-26
-1.62273e-28
-2.57479e-31
-3.00858e-34
-6.65625e-34
-6.84285e-36
2.74794e-38
3.97288e-39
0.503805
0.153841
0.0327538
0.00522149
0.00104106
2.12049e-05
2.61435e-07
2.24792e-09
1.48449e-11
7.8462e-14
3.33639e-16
1.10367e-18
2.64619e-21
4.07622e-24
-5.12896e-21
6.95195e-13
-1.30637e-12
-2.53105e-14
-6.92453e-16
-1.4297e-18
-5.33905e-22
-3.88064e-24
-6.42124e-27
-3.79323e-29
-2.00462e-31
-5.52646e-34
-1.07046e-35
-1.14564e-37
-2.96345e-40
2.86504e-41
0.503841
0.153669
0.0325841
0.00514582
0.00100928
1.95073e-05
2.2243e-07
1.74912e-09
1.06398e-11
5.05562e-14
1.68534e-16
3.45165e-19
3.98472e-22
-2.9033e-25
1.75642e-16
3.50547e-11
-1.18227e-09
-5.26782e-16
-7.1504e-21
-3.23124e-25
-3.87071e-30
2.06414e-33
-1.0879e-35
-5.18964e-35
-4.78167e-36
-2.44644e-38
-1.77986e-38
-1.44059e-40
2.46521e-42
1.31504e-43
0.503885
0.15342
0.0323357
0.00503309
0.000960542
1.68807e-05
1.64795e-07
1.06355e-09
4.98216e-12
1.73621e-14
5.54854e-17
1.94995e-19
6.78709e-22
2.16168e-22
1.17085e-14
1.67024e-08
1.08908e-07
1.31133e-50
3.65243e-42
-1.37991e-44
-6.20115e-44
-9.90227e-44
-3.20846e-45
1.72792e-42
1.16233e-43
5.07292e-45
9.51502e-46
0.503942
0.153093
0.0320053
0.00488037
0.000892418
1.32877e-05
9.50471e-08
3.71866e-10
1.21333e-12
2.23391e-14
4.40917e-16
4.49017e-18
2.74413e-20
3.54336e-24
6.02347e-17
9.76235e-11
2.86557e-09
-1.97775e-60
2.30544e-47
2.82555e-45
6.37548e-47
1.96361e-49
2.29717e-46
7.96004e-42
6.32754e-43
2.86714e-44
1.19742e-45
0.504005
0.152723
0.0316249
0.00470225
0.00081018
9.22021e-06
3.36567e-08
3.03702e-11
2.2828e-14
7.3753e-17
5.63616e-20
5.52345e-20
1.85543e-22
2.0031e-25
-1.74973e-18
4.13178e-13
1.87886e-11
-1.92778e-55
1.1651e-42
9.13939e-41
1.25453e-42
3.02636e-45
2.95234e-48
1.6318e-43
4.8166e-45
1.55997e-46
6.33395e-48
0.504073
0.152391
0.0312776
0.00453836
0.000731449
5.79982e-06
4.57058e-09
1.02137e-12
-5.51321e-34
-4.66295e-23
-3.99797e-20
7.52409e-16
1.01956e-14
5.35497e-27
3.45713e-33
2.12751e-34
-5.67218e-40
1.35453e-35
6.6176e-37
5.20091e-39
1.42746e-41
1.80614e-44
2.05678e-41
3.5551e-43
4.07156e-45
4.17444e-47
0.504106
0.152188
0.0310673
0.00443927
0.00068048
3.94078e-06
4.49678e-11
1.27427e-12
-5.96911e-31
-2.28578e-23
-1.48662e-20
1.86425e-18
2.27983e-17
1.73023e-19
6.66853e-22
1.52037e-24
2.21957e-27
2.42289e-30
2.00163e-33
1.22768e-36
9.62179e-40
2.77892e-42
4.73892e-40
1.2371e-41
1.90178e-43
2.53164e-45
0.504106
0.152189
0.0310673
0.00443911
0.000673908
3.60143e-06
3.95914e-11
1.03477e-12
-2.74978e-32
-1.77751e-27
-2.49181e-25
4.14089e-24
3.40503e-23
3.74044e-25
2.31783e-27
8.68329e-30
2.12352e-32
3.77857e-35
1.00159e-37
2.40189e-40
2.99517e-43
3.07298e-46
1.5473e-42
4.38084e-44
6.91396e-46
9.56194e-48
0.504071
0.152387
0.0312754
0.00453752
0.000714038
4.71594e-06
3.39718e-10
1.72069e-12
-4.40608e-37
-1.56232e-31
5.14986e-33
-1.6343e-32
-3.09838e-30
-5.87444e-31
-1.86032e-33
9.88901e-35
2.51543e-38
8.40238e-42
1.3088e-41
4.34322e-43
1.93538e-45
3.05658e-48
1.90056e-44
4.63855e-46
6.50584e-48
8.0171e-50
0.504007
0.152721
0.0316219
0.00470093
0.000788051
7.47616e-06
1.51069e-08
9.66738e-16
7.94193e-17
4.52201e-23
1.6498e-28
9.48079e-29
2.454e-35
3.42729e-29
2.1353e-29
-2.92296e-34
1.50323e-40
3.25667e-48
4.68825e-47
6.97271e-45
-7.14253e-52
1.60152e-47
1.653e-44
4.53074e-46
1.58386e-48
1.84864e-51
1.5083e-46
3.32863e-48
4.52842e-50
5.69207e-52
0.50394
0.153088
0.0320008
0.00487857
0.000871913
1.14085e-05
6.2052e-08
1.46876e-10
1.33759e-12
4.8973e-14
6.13482e-16
3.36532e-18
9.7616e-21
1.95175e-23
2.85878e-26
-1.4383e-31
6.25346e-37
4.43032e-67
1.0341e-53
1.62626e-49
3.33016e-50
1.98015e-52
8.25394e-54
8.14327e-49
1.68962e-50
2.17804e-52
2.47571e-54
0.503886
0.153414
0.032331
0.00503093
0.000944731
1.53141e-05
1.30789e-07
6.92801e-10
2.59134e-12
1.08343e-14
8.17207e-17
1.0577e-18
7.94186e-21
2.95925e-23
4.84377e-26
-3.14529e-30
1.56129e-35
1.22205e-71
6.07177e-59
5.40057e-55
7.48915e-55
9.16197e-57
3.4302e-55
3.1596e-51
6.23632e-53
7.06123e-55
5.96636e-57
0.503838
0.153659
0.0325761
0.0051432
0.000997969
1.8369e-05
1.95327e-07
1.41274e-09
7.77016e-12
3.09211e-14
8.22558e-17
1.56565e-19
2.414e-22
3.16018e-25
3.30437e-28
-5.7751e-31
2.67736e-36
-9.66074e-70
-7.27228e-57
1.27249e-59
7.18511e-60
4.76467e-61
2.21351e-57
8.20977e-54
1.55931e-55
1.55863e-57
1.97784e-59
0.503841
0.153849
0.0327516
0.00521951
0.00103334
2.04359e-05
2.42602e-07
1.99996e-09
1.27042e-11
6.46924e-14
2.55068e-16
7.0656e-19
1.20247e-21
1.07221e-24
5.2859e-28
-9.83411e-31
4.00298e-35
4.00833e-42
2.49397e-45
-1.04554e-50
-3.94598e-51
-8.97587e-52
6.21344e-54
1.22974e-57
1.82867e-63
-2.48987e-58
2.91001e-55
3.17011e-56
1.37715e-55
5.19826e-56
0.503739
0.153948
0.0328586
0.00526655
0.00105518
2.17039e-05
2.72429e-07
2.38837e-09
1.60279e-11
8.55114e-14
3.67154e-16
1.25965e-18
3.3683e-21
6.67461e-24
8.94941e-27
7.62496e-30
8.65099e-33
6.08235e-34
5.4838e-36
1.98915e-38
4.53879e-41
7.32847e-44
8.24318e-47
6.11098e-50
2.81066e-53
-1.04946e-55
2.98146e-50
2.92128e-51
1.48722e-50
5.85157e-51
0.503744
0.154005
0.0329248
0.00529563
0.00106794
2.24203e-05
2.89348e-07
2.61362e-09
1.80169e-11
9.84695e-14
4.342e-16
1.55139e-18
4.49725e-21
1.06301e-23
2.09336e-26
3.57178e-29
5.374e-32
7.72579e-35
1.25016e-37
2.25818e-40
4.26729e-43
7.44414e-46
1.15435e-48
1.60153e-51
1.33126e-51
-1.16581e-50
3.13932e-45
2.69183e-46
1.94712e-46
1.95604e-47
0.503716
0.154066
0.0329729
0.00531369
0.00107579
2.28305e-05
2.98658e-07
2.7354e-09
1.9101e-11
1.05733e-13
4.74519e-16
1.74918e-18
5.35048e-21
1.37632e-23
3.05352e-26
6.11643e-29
1.17707e-31
2.21834e-34
3.46177e-37
-1.28167e-39
-6.65754e-41
-2.26341e-42
-1.3473e-43
1.32554e-43
7.80661e-43
2.20165e-43
3.23693e-40
2.24242e-41
1.04078e-42
4.03904e-44
0.503696
0.154145
0.0330423
0.0053355
0.00107912
2.28233e-05
2.97796e-07
2.72057e-09
1.89082e-11
1.04214e-13
4.69979e-16
1.84875e-18
9.63548e-21
1.58595e-22
4.43966e-24
1.13057e-25
1.98823e-27
-1.07528e-29
-3.44126e-30
-2.22277e-31
-1.08252e-32
-4.58167e-34
-1.76711e-35
2.61744e-36
2.34673e-36
1.97813e-37
7.45488e-37
3.00191e-38
9.97747e-40
2.96264e-41
0.503548
0.154297
0.0331529
0.005422
0.000712872
7.80191e-05
7.30662e-06
5.97158e-07
4.32939e-08
2.82085e-09
1.66897e-10
9.04424e-12
4.52294e-13
2.10372e-14
9.17061e-16
3.77679e-17
1.47961e-18
5.54138e-20
1.98715e-21
6.81776e-23
2.235e-24
6.99608e-26
2.09111e-27
5.97347e-29
1.63344e-30
4.28223e-32
1.07495e-33
2.57782e-35
5.9186e-37
1.29926e-38
0.503528
0.154366
0.0332072
0.00544057
0.000715799
7.84968e-05
7.36733e-06
6.03568e-07
4.38556e-08
2.86291e-09
1.69683e-10
9.21241e-12
4.61771e-13
2.15201e-14
9.38897e-16
3.85908e-17
1.50249e-18
5.56168e-20
1.96139e-21
6.59453e-23
2.11369e-24
6.45927e-26
1.88287e-27
5.24116e-29
1.39426e-30
3.54906e-32
8.65231e-34
2.02228e-35
4.53988e-37
9.78187e-39
0.503517
0.15438
0.0332179
0.00544354
0.000716276
7.85357e-05
7.36954e-06
6.0373e-07
4.38683e-08
2.86395e-09
1.69814e-10
9.22528e-12
4.62933e-13
2.16083e-14
9.44339e-16
3.88548e-17
1.51275e-18
5.5931e-20
1.96849e-21
6.60385e-23
2.11321e-24
6.4536e-26
1.88235e-27
5.24892e-29
1.40087e-30
3.5812e-32
8.77946e-34
2.06485e-35
4.66704e-37
1.0147e-38
0.503502
0.154388
0.0332256
0.00544613
0.00071677
7.85947e-05
7.37511e-06
6.04253e-07
4.39172e-08
2.86826e-09
1.70152e-10
9.25261e-12
4.64778e-13
2.17226e-14
9.50425e-16
3.91518e-17
1.52532e-18
5.64111e-20
1.98537e-21
6.65986e-23
2.13146e-24
6.51314e-26
1.90175e-27
5.31097e-29
1.41973e-30
3.63761e-32
8.9375e-34
2.10746e-35
4.78129e-37
1.04403e-38
0.503963
0.157191
0.0350829
0.00609186
0.000866851
0.000104694
1.10056e-05
1.02607e-06
8.60967e-08
6.57925e-09
4.62335e-10
3.012e-11
1.83181e-12
1.04622e-13
5.64081e-15
2.88368e-16
1.40275e-17
6.51038e-19
2.88796e-20
1.22563e-21
4.97907e-23
1.93633e-24
7.20868e-26
2.56901e-27
8.76449e-29
2.86352e-30
8.96062e-32
2.68724e-33
7.73555e-35
2.13498e-36
0.503951
0.157197
0.0350922
0.00609643
0.000868194
0.000104971
1.10484e-05
1.03141e-06
8.66621e-08
6.63181e-09
4.66711e-10
3.04524e-11
1.85512e-12
1.06155e-13
5.73639e-15
2.94066e-16
1.43539e-17
6.68939e-19
2.98142e-20
1.27183e-21
5.19481e-23
2.03131e-24
7.6036e-26
2.72404e-27
9.33929e-29
3.06509e-30
9.63274e-32
2.89977e-33
8.37575e-35
2.31869e-36
0.503922
0.157209
0.0351136
0.0061068
0.000871226
0.000105588
1.11435e-05
1.04341e-06
8.79634e-08
6.75619e-09
4.77333e-10
3.12743e-11
1.91347e-12
1.10013e-13
5.9767e-15
3.08332e-16
1.51649e-17
7.13068e-19
3.21021e-20
1.38428e-21
5.71798e-23
2.26138e-24
8.56134e-26
3.10109e-27
1.07455e-28
3.56101e-30
1.12922e-31
3.42741e-33
9.97322e-35
2.77909e-36
0.503867
0.157218
0.0351461
0.00612595
0.000877305
0.000106516
1.12553e-05
1.05516e-06
8.90762e-08
6.85132e-09
4.84686e-10
3.17852e-11
1.94558e-12
1.11863e-13
6.078e-15
3.1385e-16
1.54765e-17
7.3117e-19
3.31392e-20
1.44073e-21
6.00459e-23
2.39721e-24
9.16302e-26
3.3507e-27
1.17125e-28
3.91115e-30
1.24789e-31
3.8065e-33
1.1122e-34
3.11154e-36
0.503813
0.157205
0.0351777
0.00615261
0.00157428
6.8692e-05
1.94029e-06
3.84025e-08
5.71799e-10
7.44219e-12
1.35798e-13
5.19113e-15
2.68066e-16
1.39224e-17
6.92832e-19
3.29927e-20
1.46499e-21
5.90459e-23
2.48529e-24
1.06942e-25
4.29039e-27
1.61971e-28
5.83954e-30
2.01624e-31
8.03411e-32
8.84767e-33
1.44203e-34
6.94661e-36
2.75005e-37
9.50599e-39
0.503741
0.157213
0.0352129
0.00617237
0.00158463
6.96464e-05
1.98074e-06
3.93195e-08
5.74609e-10
6.44785e-12
5.73451e-14
4.14187e-16
2.47869e-18
1.25241e-20
1.34664e-22
4.28679e-20
-6.19348e-19
-1.0193e-19
-3.74955e-21
-5.2237e-23
-4.18747e-25
-2.28909e-27
-9.14756e-30
-2.78294e-32
-6.78785e-35
-1.2697e-37
2.31725e-36
1.43232e-37
5.66981e-39
1.85064e-40
0.503684
0.157224
0.0352393
0.00618523
0.0015908
7.03144e-05
2.01642e-06
4.04611e-08
5.99285e-10
6.83104e-12
6.17563e-14
4.5253e-16
2.73369e-18
1.38389e-20
2.57249e-19
-7.89096e-17
-4.14688e-15
-6.95525e-16
-2.06455e-17
-2.23572e-19
-1.49218e-21
-7.17973e-24
-2.55582e-26
-7.39539e-29
-1.81094e-31
-3.7631e-34
3.66969e-32
1.82893e-33
6.29131e-35
1.82599e-36
0.503618
0.157221
0.0352541
0.00619253
0.00159409
7.06886e-05
2.03952e-06
4.13418e-08
6.21872e-10
7.23493e-12
6.69072e-14
5.00245e-16
3.05639e-18
1.54352e-20
3.2945e-16
-5.50363e-13
-1.28266e-11
-3.29336e-12
-8.18003e-14
-7.63395e-16
-5.16966e-18
-2.99978e-20
-1.46356e-22
-5.84761e-25
-1.83507e-27
-4.69612e-30
1.209e-29
5.18263e-31
1.6893e-32
4.74468e-34
0.503538
0.157198
0.0352516
0.00619153
0.00159296
7.06025e-05
2.04177e-06
4.17265e-08
6.3837e-10
7.62165e-12
7.26539e-14
5.57491e-16
3.43877e-18
2.79631e-20
1.79118e-13
-7.86961e-10
-3.32446e-09
-9.45429e-09
-4.26493e-11
-1.70015e-13
-1.0133e-16
-5.90625e-21
-1.26621e-23
-5.20861e-26
-3.49955e-28
-1.58063e-30
1.22878e-31
4.55022e-33
1.39041e-34
3.7037e-36
0.503437
0.15714
0.0352205
0.00617649
0.00158431
6.96885e-05
2.00254e-06
4.09377e-08
6.34922e-10
7.79592e-12
7.67193e-14
5.99104e-16
3.62495e-18
2.25462e-18
5.25186e-11
5.47428e-07
-8.97735e-06
-3.50744e-13
-7.84465e-19
-3.76699e-21
3.08898e-27
1.60468e-29
-2.70822e-32
-2.43843e-33
-3.82411e-33
-5.12569e-35
3.74172e-34
1.47226e-35
4.68223e-37
1.22198e-38
0.503317
0.157033
0.0351485
0.00614023
0.00156381
6.73855e-05
1.88887e-06
3.78632e-08
5.88118e-10
7.46418e-12
7.76529e-14
6.53493e-16
4.38108e-18
1.03871e-17
7.44779e-10
0.0210629
0.0132133
-1.08097e-41
5.00265e-38
-4.1404e-41
-4.27168e-42
-5.74614e-41
-8.62251e-41
2.32617e-37
1.53763e-38
6.33056e-40
1.82769e-41
0.503188
0.156876
0.0350249
0.00607666
0.00152739
6.31443e-05
1.66949e-06
3.16098e-08
4.89279e-10
6.86756e-12
8.48439e-14
8.18671e-16
5.78163e-18
-7.97765e-19
6.73665e-12
0.000171697
0.000173879
-8.80207e-48
4.51621e-42
2.91411e-40
4.08965e-42
2.9093e-44
9.42609e-44
7.91073e-39
6.96396e-40
3.29685e-41
1.24863e-42
0.503068
0.156683
0.0348603
0.00598965
0.00147589
5.698e-05
1.34781e-06
3.99159e-08
6.56888e-11
6.37933e-14
2.1615e-17
2.89227e-19
4.04004e-22
8.9601e-21
-1.94138e-12
2.52074e-06
9.8821e-07
-8.10721e-44
6.45714e-36
2.4057e-35
1.50833e-37
2.59334e-40
2.19165e-43
9.91717e-41
3.39385e-42
1.23265e-43
4.94633e-45
0.502976
0.1565
0.0346965
0.00590114
0.00142149
5.03934e-05
1.01088e-06
2.15434e-08
-1.53743e-25
-7.69645e-17
-5.18223e-14
1.02137e-09
3.2983e-10
-4.12773e-21
-9.63786e-26
-1.63499e-28
2.15449e-35
5.56445e-29
5.96228e-31
2.04226e-33
3.39265e-36
3.1242e-39
2.21901e-38
2.93411e-40
2.8985e-42
2.58717e-44
0.502922
0.156382
0.0345918
0.00584456
0.00138476
4.5956e-05
8.05752e-07
1.19549e-08
-5.81989e-23
-5.22963e-17
-1.61028e-14
1.45092e-12
1.47401e-13
9.80591e-16
3.02506e-18
6.11179e-21
8.18277e-24
8.99161e-27
1.18141e-29
4.68569e-31
2.27613e-33
3.76195e-36
1.68761e-36
2.8009e-38
3.24557e-40
3.26919e-42
0.502925
0.156384
0.0345917
0.00584435
0.00138083
4.51891e-05
7.70111e-07
1.05398e-08
-1.30182e-25
-2.39998e-21
-3.35601e-19
1.03824e-17
8.31445e-19
9.3056e-21
7.8314e-23
4.14901e-25
1.37115e-27
3.28924e-30
1.04515e-32
2.34967e-35
2.23077e-37
1.42301e-39
6.55008e-39
1.18832e-40
1.4501e-42
1.50403e-44
0.502974
0.156497
0.0346945
0.00590027
0.00141085
4.82055e-05
8.95027e-07
1.46682e-08
-6.69921e-30
-8.15915e-25
-2.05959e-27
4.86535e-25
-1.38923e-23
-1.51451e-26
7.96691e-30
-1.27737e-29
-9.15007e-32
1.25756e-33
6.23582e-35
4.67097e-37
1.34261e-39
1.89123e-42
2.78913e-41
5.7033e-43
7.37226e-45
7.73774e-47
0.503067
0.156683
0.0348582
0.00598854
0.00146258
5.41188e-05
1.18205e-06
2.9414e-08
5.7149e-12
1.78636e-22
3.90488e-28
2.74718e-26
-2.76709e-36
1.11656e-28
1.01183e-27
8.62857e-30
7.20623e-35
-8.08641e-37
-4.31776e-39
-1.26633e-38
8.69334e-45
6.81067e-39
9.52401e-39
1.23186e-40
3.84136e-43
5.04897e-46
1.15171e-43
2.42707e-45
3.23611e-47
3.44681e-49
0.503183
0.156873
0.035022
0.00607533
0.00151572
6.06517e-05
1.52576e-06
2.75185e-08
3.98978e-10
5.46511e-12
5.35847e-14
2.48754e-16
5.06217e-19
9.11673e-22
3.80394e-24
1.51324e-26
1.09709e-30
1.60124e-51
2.60408e-47
8.95671e-44
5.89824e-45
2.86798e-47
4.19735e-50
4.13146e-46
8.15633e-48
1.04704e-49
1.01734e-51
0.503314
0.15703
0.0351454
0.00613887
0.00155551
6.56719e-05
1.79313e-06
3.5044e-08
5.42212e-10
7.1447e-12
8.05065e-14
7.57405e-16
5.75845e-18
3.43706e-20
1.4702e-22
3.53586e-25
2.58728e-29
-6.15051e-58
2.94825e-53
2.77318e-49
1.04131e-49
9.39693e-52
7.22988e-53
1.12401e-48
2.02332e-50
2.18676e-52
1.65407e-54
0.50345
0.157138
0.0352171
0.00617521
0.001579
6.86625e-05
1.95015e-06
3.95221e-08
6.12806e-10
7.60163e-12
7.58614e-14
5.98534e-16
3.65054e-18
1.66202e-20
5.25146e-23
1.91289e-25
1.66786e-30
3.00572e-63
2.5365e-55
5.03705e-55
8.44661e-55
1.4092e-56
3.8614e-55
1.95157e-51
3.17376e-53
3.45089e-55
1.40359e-56
0.503534
0.157202
0.0352515
0.00619041
0.00158969
7.00481e-05
2.01722e-06
4.12014e-08
6.33582e-10
7.64887e-12
7.38415e-14
5.70039e-16
3.46988e-18
1.61586e-20
5.48829e-23
2.45011e-25
1.64966e-29
1.30572e-36
8.45043e-43
4.03909e-43
-5.97351e-50
4.15145e-48
2.0214e-50
2.35015e-55
9.83032e-59
-8.16222e-58
1.24699e-53
5.43862e-52
8.44825e-52
2.52683e-52
0.503598
0.157214
0.0352526
0.00619166
0.00159203
7.04054e-05
2.03011e-06
4.12444e-08
6.24083e-10
7.32649e-12
6.84637e-14
5.15677e-16
3.14929e-18
1.56191e-20
6.32442e-23
2.1435e-25
6.59004e-28
2.10479e-30
6.94103e-33
1.99262e-35
4.63069e-38
8.49048e-41
1.17293e-43
1.16867e-46
8.24835e-50
4.32523e-53
-1.38297e-49
1.90584e-48
1.58428e-48
3.59049e-49
0.503681
0.157217
0.0352352
0.00618394
0.00158966
7.01856e-05
2.01459e-06
4.05309e-08
6.03156e-10
6.91913e-12
6.29606e-14
4.6328e-16
2.79635e-18
1.40284e-20
5.96798e-23
2.22833e-25
7.65261e-28
2.48077e-30
7.38827e-33
1.94119e-35
4.43813e-38
8.86046e-41
1.55546e-43
2.42814e-46
3.42472e-49
1.1525e-51
-4.60982e-46
3.80953e-45
2.1805e-45
4.00474e-46
0.503741
0.157212
0.0352112
0.00617145
0.00158402
6.96732e-05
1.98581e-06
3.95419e-08
5.80159e-10
6.53799e-12
5.83602e-14
4.22329e-16
2.5237e-18
1.26794e-20
5.46613e-23
2.07613e-25
7.15759e-28
2.2881e-30
6.75247e-33
1.80557e-35
4.35527e-38
1.08062e-40
6.42243e-43
1.18907e-44
2.57624e-46
8.50989e-47
-1.84307e-41
1.80124e-41
5.65437e-42
6.77677e-43
0.503811
0.157203
0.0351762
0.0061517
0.00157474
6.87659e-05
1.94163e-06
3.82399e-08
5.53777e-10
6.15131e-12
5.41388e-14
3.87304e-16
2.32033e-18
1.28517e-20
1.11873e-22
2.90133e-24
1.13954e-25
4.56889e-27
1.77154e-28
6.59449e-30
2.34984e-31
8.01569e-33
2.61407e-34
8.16502e-36
2.44045e-37
6.91118e-39
-1.70159e-36
2.01035e-37
2.3232e-38
1.46098e-39
0.503865
0.157216
0.0351445
0.00612513
0.000877022
0.000106452
1.12433e-05
1.05334e-06
8.88348e-08
6.82367e-09
4.81864e-10
3.1532e-11
1.92503e-12
1.10333e-13
5.97311e-15
3.07178e-16
1.50802e-17
7.09082e-19
3.1978e-20
1.38275e-21
5.73005e-23
2.27404e-24
8.64464e-26
3.14865e-27
1.09971e-28
3.68386e-30
1.18426e-31
3.65413e-33
1.08358e-34
3.08319e-36
0.503921
0.157207
0.0351116
0.00610591
0.000870938
0.00010552
1.1131e-05
1.0415e-06
8.77181e-08
6.72857e-09
4.74591e-10
3.10328e-11
1.894e-12
1.08578e-13
5.87883e-15
3.0214e-16
1.48004e-17
6.92903e-19
3.10506e-20
1.33277e-21
5.47946e-23
2.15747e-24
8.13883e-26
2.94207e-27
1.01956e-28
3.38919e-30
1.0811e-31
3.3104e-33
9.7427e-35
2.75154e-36
0.503949
0.157195
0.0350908
0.00609564
0.000867932
0.000104907
1.10364e-05
1.02956e-06
8.64251e-08
6.60534e-09
4.64151e-10
3.02228e-11
1.83693e-12
1.04822e-13
5.64723e-15
2.88497e-16
1.40289e-17
6.5121e-19
2.89068e-20
1.22821e-21
4.99689e-23
1.94739e-24
7.27103e-26
2.60203e-27
8.92994e-29
2.93958e-30
9.28784e-32
2.81698e-33
8.21332e-35
2.29961e-36
0.503961
0.157189
0.0350815
0.00609109
0.00086658
0.000104629
1.09935e-05
1.02424e-06
8.58613e-08
6.55312e-09
4.59781e-10
2.98987e-11
1.81417e-12
1.03348e-13
5.5553e-15
2.83065e-16
1.37211e-17
6.3445e-19
2.80381e-20
1.1855e-21
4.79976e-23
1.8612e-24
6.9161e-26
2.46353e-27
8.41451e-29
2.7582e-30
8.67681e-32
2.62101e-33
7.61281e-35
2.12397e-36
0.503255
0.156112
0.0344525
0.00588165
0.000818789
9.63609e-05
9.84141e-06
8.89623e-07
7.22868e-08
5.34554e-09
3.63439e-10
2.29136e-11
1.34938e-12
7.46923e-14
3.90731e-15
1.94054e-16
9.18383e-18
4.15329e-19
1.79828e-20
7.46262e-22
2.97045e-23
1.13429e-24
4.15595e-26
1.46122e-27
4.93114e-29
1.59769e-30
4.97095e-32
1.48614e-33
4.27514e-35
1.18298e-36
0.503259
0.156116
0.0344554
0.00588303
0.000819215
9.64539e-05
9.85691e-06
8.91702e-07
7.25185e-08
5.36798e-09
3.65368e-10
2.30632e-11
1.36007e-12
7.54076e-14
3.95269e-15
1.96811e-16
9.34441e-18
4.24253e-19
1.84528e-20
7.69632e-22
3.07955e-23
1.1823e-24
4.35563e-26
1.53951e-27
5.22145e-29
1.6998e-30
5.31238e-32
1.59467e-33
4.60445e-35
1.27846e-36
0.503263
0.156124
0.0344613
0.00588585
0.000820081
9.66453e-05
9.88888e-06
8.95978e-07
7.30006e-08
5.41516e-09
3.69468e-10
2.33849e-11
1.38325e-12
7.69667e-14
4.05216e-15
2.02885e-16
9.70431e-18
4.44715e-19
1.95434e-20
8.23925e-22
3.33277e-23
1.29349e-24
4.81712e-26
1.72067e-27
5.89586e-29
1.93791e-30
6.11282e-32
1.851e-33
5.3884e-35
1.50766e-36
0.503273
0.156136
0.0344695
0.00588963
0.000821469
9.67141e-05
9.88597e-06
8.95354e-07
7.29678e-08
5.41688e-09
3.70009e-10
2.34496e-11
1.38906e-12
7.74224e-14
4.08558e-15
2.09116e-16
1.27054e-17
7.779e-19
3.6857e-20
1.5074e-21
5.81201e-23
2.15995e-24
7.75312e-26
2.68415e-27
8.95055e-29
2.87215e-30
8.86752e-32
2.63403e-33
7.535e-35
2.07567e-36
0.503291
0.156153
0.0344783
0.00589554
0.00147373
6.15745e-05
1.64451e-06
3.06201e-08
4.30792e-10
5.41625e-12
1.00997e-13
3.93469e-15
1.99893e-16
1.01386e-17
4.87421e-19
-8.72634e-18
1.26673e-18
3.23617e-19
1.04769e-20
1.36008e-22
9.72971e-25
4.41648e-27
1.66307e-29
8.30871e-31
1.44332e-31
8.4257e-33
1.30599e-34
5.66053e-36
2.10998e-37
7.0166e-39
0.5033
0.156161
0.0344838
0.00589864
0.0014763
6.19227e-05
1.66243e-06
3.10473e-08
4.28311e-10
4.56393e-12
3.88515e-14
2.71205e-16
1.58614e-18
7.92125e-21
-5.70631e-17
-7.757e-14
4.75313e-14
6.94562e-15
2.02231e-16
2.62982e-18
2.06848e-20
1.11002e-22
4.18828e-25
1.16356e-27
2.6462e-30
4.62794e-33
3.88944e-31
1.02697e-32
2.60416e-34
6.33718e-36
0.503309
0.156162
0.0344835
0.00589942
0.0014777
6.21944e-05
1.68039e-06
3.16961e-08
4.43413e-10
4.81008e-12
4.17918e-14
2.97858e-16
1.77486e-18
-7.222e-21
-2.45398e-13
-2.33538e-10
4.47454e-10
5.04989e-11
1.33319e-12
1.7045e-14
1.42906e-16
8.71082e-19
3.8845e-21
1.43845e-23
4.5513e-26
1.22288e-28
4.91691e-27
1.255e-28
3.07937e-30
7.25445e-32
0.503314
0.156151
0.0344718
0.00589543
0.001477
6.23057e-05
1.69348e-06
3.23049e-08
4.60219e-10
5.11907e-12
4.58271e-14
3.36839e-16
2.0616e-18
-2.56759e-17
-4.38215e-10
-1.15062e-07
1.39219e-06
1.31104e-07
3.24824e-09
4.20171e-11
3.87276e-13
2.77874e-15
1.59209e-17
7.61933e-20
3.08183e-22
1.04818e-24
1.20563e-24
3.02583e-26
7.30045e-28
1.69073e-29
0.503316
0.15612
0.0344417
0.0058832
0.00147267
6.21146e-05
1.69541e-06
3.27357e-08
4.77421e-10
5.50425e-12
5.15299e-14
3.97001e-16
2.53197e-18
-1.71347e-14
-3.29198e-07
0.000236249
-0.000393768
8.89968e-05
9.79167e-07
9.98408e-09
1.29239e-12
1.01715e-16
1.06595e-19
1.02959e-21
1.13742e-23
6.88783e-26
8.80489e-27
1.98714e-28
4.66598e-30
1.07342e-31
0.503316
0.156058
0.0343835
0.00585793
0.00146229
6.13647e-05
1.67384e-06
3.26481e-08
4.89972e-10
5.94158e-12
5.94393e-14
4.91444e-16
3.21009e-18
-5.59389e-12
-0.000126706
-0.395788
-0.459699
-3.61824e-09
-1.27323e-15
2.38945e-17
-2.77156e-23
-3.93162e-25
1.92264e-28
1.36978e-29
4.61371e-29
1.02338e-30
1.64119e-29
4.88988e-31
1.3319e-32
3.30512e-34
0.503316
0.155956
0.0342855
0.00581385
0.00144263
5.96884e-05
1.60801e-06
3.13642e-08
4.8465e-10
6.29085e-12
6.92802e-14
6.42897e-16
4.0497e-18
4.71579e-12
0.00113646
5342.05
95.2738
-1.51697e-37
-8.03145e-34
3.15971e-37
2.91014e-37
9.59111e-37
1.11123e-36
1.50707e-32
6.48113e-34
2.25861e-35
6.45207e-37
0.503312
0.15581
0.0341432
0.0057474
0.00141109
5.66845e-05
1.47017e-06
2.76988e-08
4.2589e-10
5.98845e-12
7.52014e-14
7.01942e-16
4.37318e-18
2.10785e-13
2.38593e-05
100.256
2.85549
7.0463e-43
1.02191e-36
4.16197e-36
2.84009e-37
6.80062e-39
1.12138e-40
6.28144e-36
5.69485e-37
2.80792e-38
1.02257e-39
0.503324
0.155636
0.0339701
0.00566346
0.00136872
5.22496e-05
1.23968e-06
3.69332e-08
5.81603e-11
4.94607e-14
1.28579e-17
8.71379e-20
2.79657e-23
-3.08449e-13
-1.38336e-05
3.65918
0.0576922
-1.38818e-39
1.96677e-29
7.83208e-31
1.95601e-33
1.99404e-36
1.20978e-39
3.35871e-38
1.51009e-39
6.19139e-41
2.53902e-42
0.503329
0.155474
0.033806
0.00558192
0.00132517
4.73652e-05
9.67484e-07
1.96376e-08
-2.89218e-20
-2.29838e-12
-1.96577e-07
0.00331444
0.000451512
-3.48857e-15
2.13475e-18
6.49944e-21
6.6111e-27
1.33134e-23
4.06044e-26
6.63059e-29
6.62132e-32
4.3687e-35
1.17702e-35
9.66664e-38
7.67276e-40
6.1262e-42
0.503334
0.155375
0.0337048
0.00553137
0.0012964
4.40414e-05
7.98373e-07
1.14924e-08
-1.37708e-16
-8.73339e-11
-5.52207e-08
1.85116e-05
1.40509e-06
5.66458e-09
1.90805e-11
3.87772e-14
5.21398e-17
6.13268e-20
1.80151e-22
3.30564e-25
3.64356e-28
2.66838e-31
2.00392e-33
1.84359e-35
1.59175e-37
1.31285e-39
0.503335
0.155376
0.0337038
0.00553109
0.00129336
4.34348e-05
7.67932e-07
1.03271e-08
-4.29184e-20
-3.83838e-15
-5.32368e-13
5.58948e-10
6.17758e-11
3.57248e-13
1.61154e-15
5.92277e-18
1.50041e-20
3.35951e-23
7.76899e-26
2.43346e-28
5.76748e-31
6.93819e-34
7.93641e-36
7.96906e-38
7.38937e-40
6.40628e-42
0.503329
0.155472
0.0338036
0.00558098
0.00131694
4.56518e-05
8.67759e-07
1.36194e-08
-1.06965e-23
-8.40327e-20
4.86793e-21
6.80507e-18
-3.66609e-17
-6.68509e-21
2.79311e-23
-4.49664e-23
-3.85952e-25
3.79377e-27
1.87036e-29
5.82544e-32
1.05278e-34
1.13607e-37
1.22833e-38
1.94621e-40
2.24785e-42
2.17874e-44
0.503319
0.155631
0.0339667
0.005662
0.00135837
5.0059e-05
1.10325e-06
2.64675e-08
4.26721e-12
1.28436e-21
2.06911e-28
2.76687e-26
-8.5503e-30
-5.97399e-26
2.81997e-28
-1.53002e-27
-2.22619e-30
1.5182e-30
1.04121e-29
6.65867e-31
1.18519e-37
1.70859e-32
7.37632e-34
4.33771e-36
9.93993e-39
1.15921e-41
2.64523e-41
5.01377e-43
6.46234e-45
6.60422e-47
0.503316
0.155806
0.0341394
0.00574573
0.00140189
5.48351e-05
1.3666e-06
2.44569e-08
3.37279e-10
4.4333e-12
3.70544e-14
1.06885e-16
9.3597e-20
1.22967e-22
1.30398e-24
7.6403e-27
3.98709e-31
3.00086e-46
5.49471e-41
5.64592e-39
1.1791e-40
3.95353e-43
5.14395e-46
5.89164e-44
1.12361e-45
1.44563e-47
1.36282e-49
0.503316
0.155953
0.0342817
0.00581219
0.00143587
5.84114e-05
1.545e-06
2.97318e-08
4.61835e-10
6.23067e-12
7.43864e-14
7.64917e-16
6.4824e-18
4.42408e-20
2.25333e-22
6.44057e-25
4.74053e-29
-2.39837e-52
1.57046e-48
9.93125e-45
1.16106e-45
6.65538e-48
9.59901e-51
8.95681e-47
1.55812e-48
1.79692e-50
1.23124e-52
0.50333
0.156063
0.0343805
0.00585644
0.00145771
6.05635e-05
1.63939e-06
3.19502e-08
4.85471e-10
6.06423e-12
6.3182e-14
5.45249e-16
3.86064e-18
2.19525e-20
9.33332e-23
4.56626e-25
3.65942e-30
-6.9516e-60
2.66354e-55
4.07127e-51
3.21234e-51
3.68751e-53
5.13718e-55
5.2678e-50
1.10467e-51
9.9553e-53
1.20112e-53
0.503302
0.156118
0.0344395
0.00588166
0.00146977
6.16227e-05
1.67749e-06
3.24768e-08
4.7902e-10
5.63611e-12
5.42102e-14
4.29605e-16
2.80497e-18
1.49871e-20
6.43855e-23
4.06372e-25
5.03313e-29
5.77897e-36
1.77348e-42
3.47968e-43
-7.95568e-51
1.54811e-49
2.91038e-51
5.88719e-53
5.03198e-56
-7.18161e-56
2.17758e-48
7.25142e-49
1.12845e-49
1.0387e-50
0.503316
0.156137
0.0344681
0.00589423
0.00147492
6.20077e-05
1.68406e-06
3.22259e-08
4.62922e-10
5.21865e-12
4.75042e-14
3.55074e-16
2.2007e-18
1.14027e-20
4.99851e-23
1.91561e-25
6.83442e-28
2.52667e-30
9.72695e-33
3.16913e-35
7.82721e-38
1.43607e-40
1.98225e-43
2.08701e-46
1.74406e-49
5.85595e-53
2.04402e-45
5.45852e-46
6.99105e-47
5.75909e-48
0.50331
0.156159
0.0344791
0.00589766
0.00147618
6.20013e-05
1.67506e-06
3.16746e-08
4.45593e-10
4.87354e-12
4.27478e-14
3.0752e-16
1.84445e-18
9.36896e-21
4.11228e-23
1.60808e-25
5.85742e-28
2.06187e-30
6.91677e-33
2.13567e-35
5.97172e-38
1.50698e-40
3.42748e-43
7.03119e-46
1.30754e-48
-1.18772e-49
1.92266e-42
4.01358e-43
4.12164e-44
2.95491e-45
0.503302
0.156159
0.0344812
0.00589735
0.00147526
6.17919e-05
1.65955e-06
3.10479e-08
4.29769e-10
4.60156e-12
3.9389e-14
2.76264e-16
1.62093e-18
8.10476e-21
3.52644e-23
1.36753e-25
4.85104e-28
1.60371e-30
4.93069e-33
1.39083e-35
3.60083e-38
9.61805e-41
5.61348e-43
1.05424e-44
2.49474e-46
-4.31541e-46
3.41509e-39
4.78326e-40
3.58621e-41
2.04482e-42
0.503292
0.156151
0.0344756
0.00589418
0.00147303
6.14854e-05
1.64062e-06
3.04155e-08
4.15903e-10
4.3866e-12
3.6914e-14
2.54856e-16
1.49087e-18
8.26308e-21
7.62273e-23
2.04315e-24
7.97159e-26
3.15619e-27
1.21156e-28
4.4696e-30
1.58536e-31
5.3945e-33
1.76502e-34
5.55436e-36
1.67361e-37
4.82764e-39
1.15454e-35
8.86795e-37
4.49267e-38
1.90263e-39
0.503274
0.156133
0.0344668
0.00588833
0.000821068
9.66296e-05
9.87155e-06
8.93341e-07
7.27231e-08
5.39091e-09
3.67544e-10
2.32408e-11
1.3731e-12
7.63023e-14
4.01366e-15
2.00977e-16
9.62839e-18
4.42733e-19
1.95684e-20
8.31086e-22
3.39087e-23
1.32816e-24
4.99633e-26
1.8053e-27
6.27022e-29
2.09438e-30
6.72986e-32
2.08062e-33
6.19478e-35
1.77537e-36
0.503264
0.156122
0.0344585
0.00588448
0.000819666
9.65548e-05
9.87334e-06
8.93809e-07
7.27413e-08
5.38806e-09
3.6696e-10