/*--------------------------------*- C++ -*----------------------------------*\
  =========                 |
  \\      /  F ield         | OpenFOAM: The Open Source CFD Toolbox
   \\    /   O peration     | Website:  https://openfoam.org
    \\  /    A nd           | Version:  10
     \\/     M anipulation  |
\*---------------------------------------------------------------------------*/
FoamFile
{
    format      ascii;
    class       volScalarField;
    location    "1.5";
    object      T;
}
// * * * * * * * * * * * * * * * * * * * * * * * * * * * * * * * * * * * * * //

dimensions      [0 0 0 1 0 0 0];

internalField   nonuniform List<scalar> 
96305
(
0.259242
0.0366336
0.00351336
0.000253341
1.45898e-05
6.98657e-07
2.86231e-08
1.02463e-09
3.25807e-11
9.32611e-13
2.42985e-14
5.81622e-16
1.2894e-17
2.6664e-19
5.17646e-21
9.48718e-23
1.64918e-24
2.72892e-26
4.30884e-28
6.50122e-30
9.38113e-32
1.29495e-33
1.71027e-35
2.16122e-37
2.6133e-39
3.02591e-41
3.35455e-43
3.56073e-45
3.62498e-47
3.53272e-49
0.259246
0.0366304
0.0035123
0.000253201
1.45791e-05
6.98128e-07
2.86021e-08
1.02378e-09
3.25465e-11
9.31308e-13
2.42527e-14
5.80128e-16
1.28498e-17
2.65469e-19
5.14905e-21
9.43144e-23
1.63942e-24
2.71432e-26
4.29063e-28
6.4835e-30
9.37173e-32
1.29602e-33
1.71488e-35
2.1713e-37
2.63061e-39
3.05107e-41
3.38764e-43
3.599e-45
3.66507e-47
3.57069e-49
0.259248
0.036626
0.00351083
0.000253
1.45652e-05
6.97596e-07
2.85875e-08
1.02338e-09
3.25367e-11
9.31091e-13
2.42434e-14
5.79598e-16
1.28259e-17
2.64649e-19
5.12722e-21
9.38644e-23
1.63257e-24
2.70814e-26
4.29359e-28
6.51051e-30
9.44351e-32
1.30988e-33
1.73732e-35
2.20299e-37
2.66977e-39
3.09289e-41
3.42754e-43
3.63161e-45
3.68484e-47
3.57139e-49
0.259252
0.0366091
0.00350528
0.000252204
1.45082e-05
6.9429e-07
2.84344e-08
1.01697e-09
3.23051e-11
9.23832e-13
2.4039e-14
5.74242e-16
1.26938e-17
2.6168e-19
5.07058e-21
9.30841e-23
1.63019e-24
2.73631e-26
4.40958e-28
6.82011e-30
1.01146e-31
1.43729e-33
1.95678e-35
2.55244e-37
3.18738e-39
3.80957e-41
4.34638e-43
4.71447e-45
4.87685e-47
4.80372e-49
0.259287
0.0365607
0.00348976
0.000247421
2.2712e-05
9.45884e-08
2.36753e-10
4.69938e-13
2.39919e-15
4.59703e-17
9.89803e-19
1.9545e-20
3.50427e-22
5.65372e-24
7.988e-26
9.08971e-28
5.48033e-30
-9.39569e-32
-4.65905e-33
-1.2348e-34
-2.66048e-36
-5.09725e-38
9.58322e-39
3.95044e-40
7.59818e-42
1.1391e-43
4.63705e-46
7.5972e-48
1.0334e-49
1.23083e-51
0.259291
0.0365399
0.00348257
0.000246468
2.2622e-05
9.57765e-08
2.45622e-10
4.4111e-13
6.04913e-16
6.60297e-19
5.88112e-22
4.33866e-25
2.67397e-28
1.17674e-31
-4.04469e-34
-8.67799e-36
-1.53327e-37
-2.57119e-39
-4.09721e-41
-6.22174e-43
-9.11968e-45
-1.30479e-46
3.99325e-45
8.46897e-46
3.42553e-47
7.42369e-49
3.60407e-49
9.22595e-51
1.58887e-52
2.1748e-54
0.259295
0.0365245
0.00347675
0.000245489
2.24672e-05
9.46173e-08
2.41002e-10
4.29233e-13
5.84716e-16
6.33655e-19
5.57338e-22
4.01304e-25
2.37628e-28
1.16687e-31
4.86304e-35
1.81063e-38
6.35771e-42
2.05752e-45
5.4736e-49
-3.75553e-52
-6.36404e-54
1.91952e-56
9.28045e-53
7.07576e-52
8.78077e-53
3.56889e-54
2.83537e-52
9.14393e-54
1.79415e-55
2.59266e-57
0.259296
0.0365029
0.00346836
0.000244016
2.22108e-05
9.21577e-08
2.30088e-10
4.01353e-13
5.36535e-16
5.71055e-19
4.90704e-22
3.40189e-25
1.88795e-28
8.29142e-32
2.83608e-35
7.24432e-39
1.53903e-42
5.1438e-46
3.03567e-49
2.06411e-52
3.59774e-55
2.55998e-58
1.42262e-61
2.25807e-61
5.57094e-60
1.7627e-60
1.876e-55
7.28269e-57
1.61277e-58
2.46919e-60
0.259298
0.0364695
0.00345527
0.000241616
2.17717e-05
8.77184e-08
2.1033e-10
3.51457e-13
4.52196e-16
4.6677e-19
3.87918e-22
2.50214e-25
1.16e-28
3.38254e-32
4.9141e-36
4.67342e-40
-2.86864e-44
-1.84099e-47
-9.00007e-51
-3.81062e-54
-1.50425e-57
-4.02405e-62
9.38504e-67
1.24209e-67
8.71721e-66
-2.81008e-66
1.7867e-58
7.12723e-60
1.58331e-61
2.28504e-63
0.259294
0.0364192
0.00343509
0.000237814
2.10513e-05
8.02668e-08
1.77691e-10
2.71526e-13
3.22282e-16
2.99222e-19
1.93631e-22
7.55575e-26
1.58071e-29
1.81345e-33
2.11006e-37
-2.03077e-40
7.44806e-49
-8.11884e-59
3.30416e-62
-9.97363e-67
-1.48869e-70
4.11859e-71
1.0408e-75
1.73759e-74
2.81149e-71
-4.48058e-69
1.66731e-61
6.17334e-63
1.29562e-64
1.52907e-66
0.259287
0.0363465
0.00340562
0.000232164
1.995e-05
6.88451e-08
1.30122e-10
1.63311e-13
1.49416e-16
1.01013e-19
6.10803e-23
3.76175e-26
2.19261e-29
9.96118e-33
2.54788e-36
-7.59216e-40
3.80154e-48
-2.69721e-91
7.46484e-81
1.26389e-83
3.25122e-79
8.50168e-75
2.92244e-70
6.58056e-67
6.15692e-68
8.38289e-69
8.2884e-72
0.259279
0.0362508
0.00336638
0.000224516
1.84169e-05
5.3438e-08
7.3664e-11
5.61997e-14
3.50839e-17
8.38714e-20
2.94065e-22
5.79988e-25
6.92108e-28
5.12231e-31
1.76745e-34
-1.18736e-39
8.46632e-48
-3.94823e-101
1.13063e-90
-5.18025e-88
-1.3508e-83
-3.19301e-79
-6.97571e-75
6.17717e-72
5.37328e-73
4.31476e-74
2.56182e-75
0.259265
0.0361419
0.00332106
0.000215589
1.65766e-05
3.63196e-08
2.52965e-11
4.51572e-15
1.41351e-20
-3.90222e-23
-4.92452e-26
3.05703e-27
1.94528e-30
4.42685e-34
3.98967e-37
-1.53795e-42
5.35008e-50
-2.62568e-103
3.19041e-89
1.07259e-88
-1.24233e-88
-2.09725e-83
-6.35693e-78
1.86212e-71
1.10528e-72
3.81402e-74
1.02346e-75
0.259258
0.0360428
0.00327957
0.00020738
1.48278e-05
2.22619e-08
3.27547e-12
-1.5047e-17
-3.86656e-44
8.87054e-43
3.34779e-41
-7.32615e-46
-1.85201e-54
2.89445e-67
-3.38655e-75
2.19861e-76
-4.20631e-82
1.40567e-79
2.35592e-82
3.10103e-86
-5.1819e-90
-4.00949e-80
3.35257e-72
2.00756e-73
6.75475e-75
1.87111e-76
0.259248
0.0359824
0.00325447
0.000202434
1.37037e-05
1.48206e-08
1.96228e-14
2.06015e-17
9.54544e-63
2.28774e-48
1.1538e-45
3.0957e-50
1.35748e-53
6.97055e-57
2.23483e-60
4.75242e-64
6.90629e-68
7.83005e-72
6.9909e-76
4.79684e-80
2.52475e-84
-9.00187e-83
2.81083e-75
3.2574e-76
1.72575e-77
9.36464e-79
0.259247
0.0359827
0.00325447
0.000202425
1.3555e-05
1.34852e-08
1.65171e-14
1.5932e-17
2.30029e-63
4.41621e-51
3.14318e-48
4.3611e-52
1.25211e-55
6.93e-59
2.39136e-62
5.99281e-66
1.19046e-69
1.91988e-73
2.54687e-77
2.72795e-81
2.30097e-85
-1.14697e-82
1.91098e-75
2.08602e-76
9.63805e-78
5.36648e-79
0.259256
0.0360418
0.00327931
0.000207337
1.44344e-05
1.79094e-08
2.2585e-13
2.84341e-17
1.72632e-63
1.47351e-46
1.92205e-43
4.56753e-48
1.65903e-54
-2.31016e-60
-7.27749e-64
1.74737e-66
6.00793e-71
8.65093e-76
3.96115e-79
6.14133e-83
5.40375e-87
-4.9896e-80
2.81537e-72
1.6402e-73
4.9731e-75
1.46813e-76
0.259266
0.0361411
0.00332071
0.000215522
1.60747e-05
2.91328e-08
1.11129e-11
-7.19059e-17
1.4196e-23
1.33453e-31
-7.26993e-36
8.6113e-38
7.63517e-45
3.05175e-38
3.74761e-39
-2.26175e-44
1.80297e-54
4.16664e-71
-4.35459e-79
5.69206e-79
-1.09005e-85
4.57006e-85
4.60964e-86
7.29299e-89
-2.62884e-88
-3.05179e-79
2.74171e-71
2.07977e-72
8.68962e-74
3.362e-75
0.259277
0.0362495
0.00336585
0.000224424
1.79488e-05
4.55357e-08
4.75741e-11
2.20727e-14
2.73529e-17
1.69283e-19
4.00423e-22
4.19957e-25
2.35894e-28
9.10134e-32
2.4599e-35
-4.74677e-41
1.82773e-49
2.2326e-101
-1.50098e-84
2.0135e-92
1.00327e-87
1.25256e-82
2.2646e-77
1.18507e-71
1.33592e-72
7.55973e-74
3.43443e-75
0.259287
0.0363448
0.00340506
0.000232054
1.95851e-05
6.2135e-08
1.02548e-10
1.05707e-13
7.74214e-17
5.98341e-20
6.95155e-23
1.46377e-25
2.10022e-28
1.55304e-31
5.04183e-35
-1.45605e-39
9.97028e-48
1.66535e-93
-5.92694e-78
1.54919e-85
4.93512e-87
2.63167e-82
1.63771e-77
1.84992e-72
2.89576e-73
1.9465e-74
1.18036e-75
0.259292
0.0364162
0.00343415
0.000237681
2.07873e-05
7.53153e-08
1.55284e-10
2.18275e-13
2.34394e-16
1.81552e-19
9.27129e-23
3.28808e-26
8.92333e-30
1.94308e-33
3.40798e-37
-2.40919e-40
1.15032e-48
-3.84596e-86
-5.16123e-71
-2.23698e-76
-8.26383e-83
-9.13769e-80
-2.96155e-75
6.15522e-72
9.66521e-72
4.03619e-72
6.22728e-73
0.25932
0.0364717
0.00345501
0.000241516
2.15895e-05
8.43318e-08
1.94517e-10
3.11531e-13
3.85655e-16
3.83679e-19
2.95251e-22
1.5836e-25
5.10445e-29
8.08522e-33
6.12686e-37
-4.30229e-40
1.51851e-46
-7.09879e-58
3.91882e-60
-8.93367e-64
-2.81764e-65
-5.14644e-65
-2.53562e-70
1.17245e-73
-1.00672e-74
-5.88916e-70
1.46237e-66
6.10863e-68
1.50375e-67
2.63894e-68
0.259276
0.0365017
0.00346781
0.000243888
2.20863e-05
8.9907e-08
2.1955e-10
3.74009e-13
4.88766e-16
5.08945e-19
4.26919e-22
2.85859e-25
1.48536e-28
5.65744e-32
1.41966e-35
2.13231e-39
4.2251e-43
5.54403e-45
1.0073e-47
7.31204e-51
3.34683e-54
1.09171e-57
2.50945e-61
3.85844e-65
3.71793e-69
-5.72995e-67
3.51204e-61
1.56455e-62
3.75075e-62
6.75948e-63
0.259295
0.0365199
0.00347583
0.000245361
2.23773e-05
9.30728e-08
2.33852e-10
4.10557e-13
5.51046e-16
5.87728e-19
5.06541e-22
3.53818e-25
2.00152e-28
9.18876e-32
3.48432e-35
1.12933e-38
3.16109e-42
8.29587e-46
2.4921e-49
8.63643e-53
3.11524e-56
9.16108e-60
-2.92065e-62
-2.22946e-62
1.57988e-62
-1.35314e-61
8.21424e-56
3.24058e-57
1.08906e-57
5.00364e-59
0.259291
0.0365388
0.00348194
0.00024633
2.25592e-05
9.48964e-08
2.4177e-10
4.30441e-13
5.85221e-16
6.32192e-19
5.54766e-22
4.00289e-25
2.39609e-28
1.2036e-31
5.18938e-35
1.97152e-38
1.45847e-42
-8.91975e-44
-1.33436e-45
-1.8144e-47
-2.35003e-49
-3.04588e-51
-7.39293e-53
-3.90023e-53
4.6506e-53
6.01745e-54
1.88317e-50
6.05493e-52
1.29168e-53
2.29484e-55
0.259287
0.0365591
0.00348913
0.000247297
2.2632e-05
9.48279e-08
2.40846e-10
4.27554e-13
5.78327e-16
6.22008e-19
5.46521e-22
1.78752e-25
-8.75151e-27
-2.56941e-28
-6.10633e-30
-1.3093e-31
-2.58583e-33
-4.74165e-35
-8.31122e-37
-1.37574e-38
-2.18237e-40
-3.34956e-42
-4.96982e-44
-6.51141e-47
7.11329e-46
2.72622e-47
9.68216e-47
1.82801e-48
2.79177e-50
3.78425e-52
0.259253
0.0366075
0.00350465
0.000252082
1.44931e-05
6.92974e-07
2.8344e-08
1.01192e-09
3.20676e-11
9.14144e-13
2.36916e-14
5.63148e-16
1.2372e-17
2.53217e-19
4.86562e-21
8.8482e-23
1.53318e-24
2.54362e-26
4.04642e-28
6.16707e-30
8.99284e-32
1.25387e-33
1.67171e-35
2.13324e-37
2.60977e-39
3.06551e-41
3.45292e-43
3.72094e-45
3.8444e-47
3.80297e-49
0.259248
0.0366246
0.00351018
0.000252874
1.45496e-05
6.9622e-07
2.84929e-08
1.01806e-09
3.22861e-11
9.20879e-13
2.38776e-14
5.67935e-16
1.24907e-17
2.55819e-19
4.91319e-21
8.90497e-23
1.53152e-24
2.50859e-26
3.92139e-28
5.8537e-30
8.34374e-32
1.1357e-33
1.47685e-35
1.83675e-37
2.18641e-39
2.49412e-41
2.7289e-43
2.86662e-45
2.89625e-47
2.81228e-49
0.259246
0.036629
0.00351172
0.00025308
1.4564e-05
6.96774e-07
2.8509e-08
1.01855e-09
3.23001e-11
9.2129e-13
2.3897e-14
5.68734e-16
1.2522e-17
2.56865e-19
4.9416e-21
8.96568e-23
1.54191e-24
2.52262e-26
3.93532e-28
5.86168e-30
8.34171e-32
1.13474e-33
1.4766e-35
1.83984e-37
2.19748e-39
2.51786e-41
2.77071e-43
2.92934e-45
2.98053e-47
2.9186e-49
0.259243
0.0366322
0.00351274
0.000253218
1.45745e-05
6.97291e-07
2.85298e-08
1.01941e-09
3.2336e-11
9.22698e-13
2.39457e-14
5.70464e-16
1.25733e-17
2.58261e-19
4.97429e-21
9.03594e-23
1.55503e-24
2.54476e-26
3.9698e-28
5.91243e-30
8.41518e-32
1.14542e-33
1.49212e-35
1.86202e-37
2.22765e-39
2.55831e-41
2.82166e-43
2.9912e-45
3.05381e-47
3.00149e-49
0.259352
0.0373494
0.00372735
0.000285811
1.78617e-05
9.45205e-07
4.35004e-08
1.77566e-09
6.52729e-11
2.18721e-12
6.74742e-14
1.93226e-15
5.17289e-17
1.30244e-18
3.10044e-20
7.00899e-22
1.51009e-23
3.10903e-25
6.12751e-27
1.15716e-28
2.09499e-30
3.63628e-32
6.05089e-34
9.65271e-36
1.47627e-37
2.16538e-39
3.04652e-41
4.11386e-43
5.34006e-45
6.65609e-47
0.259349
0.0373522
0.00372861
0.00028606
1.78926e-05
9.47922e-07
4.36815e-08
1.78546e-09
6.57239e-11
2.20549e-12
6.81389e-14
1.95437e-15
5.24092e-17
1.32211e-18
3.15445e-20
7.15107e-22
1.54607e-23
3.19644e-25
6.33003e-27
1.20166e-28
2.18753e-30
3.818e-32
6.38841e-34
1.02455e-35
1.57476e-37
2.32038e-39
3.2788e-41
4.44444e-43
5.78889e-45
7.23748e-47
0.259342
0.0373582
0.00373143
0.000286612
1.79612e-05
9.53913e-07
4.40814e-08
1.80743e-09
6.67629e-11
2.24887e-12
6.97601e-14
2.00937e-15
5.4124e-17
1.372e-18
3.29147e-20
7.51025e-22
1.63638e-23
3.41412e-25
6.83073e-27
1.31102e-28
2.41394e-30
4.26183e-32
7.21329e-34
1.16977e-35
1.81731e-37
2.70407e-39
3.85564e-41
5.26981e-43
6.91507e-45
8.70253e-47
0.259329
0.0373669
0.00373619
0.000287673
1.8096e-05
9.63995e-07
4.46838e-08
1.83768e-09
6.80863e-11
2.30013e-12
7.15428e-14
2.06531e-15
5.57261e-17
1.41446e-18
3.39808e-20
7.77036e-22
1.69936e-23
3.56561e-25
7.18668e-27
1.39118e-28
2.58486e-30
4.60623e-32
7.8686e-34
1.28754e-35
2.01679e-37
3.02224e-39
4.33359e-41
5.94959e-43
7.83562e-45
9.89599e-47
0.259315
0.0373724
0.00374154
0.000289264
3.46305e-05
3.1566e-07
1.80615e-09
7.21399e-12
2.45787e-14
1.67383e-16
3.36779e-18
8.26617e-20
1.95274e-21
4.37514e-23
9.32976e-25
1.89668e-26
3.66795e-28
6.75362e-30
1.18598e-31
1.99394e-33
3.208e-35
4.95993e-37
7.39742e-39
1.05252e-40
5.95955e-41
3.04556e-42
2.11391e-44
4.70301e-46
8.50561e-48
1.33787e-49
0.259296
0.0373819
0.00374676
0.000290375
3.48955e-05
3.20645e-07
1.84677e-09
7.31402e-12
2.11902e-14
4.70508e-17
8.28438e-20
1.18684e-22
1.41262e-25
1.42369e-28
1.22539e-31
5.84879e-35
-7.26493e-37
-1.59185e-38
-3.05093e-40
-5.55262e-42
-9.68794e-44
-1.64301e-45
-2.68959e-47
-4.24063e-49
2.87513e-48
1.20282e-48
7.87862e-48
2.91165e-49
6.97903e-51
1.32039e-52
0.259281
0.0373898
0.00375049
0.000291088
3.50572e-05
3.2419e-07
1.88402e-09
7.54715e-12
2.21756e-14
5.00495e-17
8.96295e-20
1.30322e-22
1.56604e-25
1.58201e-28
1.37277e-31
1.05532e-34
7.46889e-38
4.98009e-41
3.07626e-44
1.70289e-47
8.21232e-51
1.95678e-54
-2.28529e-56
9.25003e-58
2.34964e-55
5.41653e-55
4.18061e-51
2.05121e-52
5.90411e-54
1.25852e-55
0.259261
0.0373943
0.00375293
0.000291532
3.51512e-05
3.26281e-07
1.90886e-09
7.73067e-12
2.30916e-14
5.32506e-17
9.76443e-20
1.44964e-22
1.76236e-25
1.7731e-28
1.50296e-31
1.11289e-34
7.61243e-38
5.03403e-41
3.1444e-44
1.75522e-47
8.67457e-51
3.8735e-54
1.57094e-57
5.71505e-61
3.15853e-61
9.25491e-61
3.82275e-54
2.16106e-55
6.89533e-57
1.53906e-58
0.259236
0.0373941
0.00375349
0.000291568
3.51406e-05
3.26123e-07
1.91349e-09
7.82143e-12
2.37989e-14
5.64254e-17
1.06836e-19
1.62992e-22
2.00199e-25
1.95976e-28
1.50538e-31
9.17574e-35
8.43683e-39
2.19046e-44
1.1822e-47
1.12199e-50
4.21864e-55
-8.13167e-59
1.48267e-62
4.82953e-64
1.58673e-66
-1.21834e-64
4.67872e-57
2.77668e-58
9.24056e-60
2.03342e-61
0.259201
0.037386
0.00375089
0.000290916
3.49527e-05
3.21909e-07
1.87777e-09
7.68986e-12
2.37834e-14
5.81827e-17
1.14112e-19
1.77691e-22
2.14439e-25
1.92278e-28
1.19777e-31
9.6043e-35
2.7036e-41
-9.06798e-55
3.53611e-59
5.20678e-61
-3.56505e-68
1.1404e-67
3.82684e-72
1.62643e-72
1.67497e-72
-6.17782e-68
4.49603e-60
2.82019e-61
9.88995e-63
2.08734e-64
0.259156
0.0373657
0.00374367
0.000289216
3.44832e-05
3.10871e-07
1.76949e-09
7.12195e-12
2.21614e-14
5.63508e-17
1.17307e-19
1.97186e-22
2.63898e-25
2.73844e-28
2.02111e-31
8.48063e-35
4.60128e-40
-6.71258e-82
2.05278e-77
6.58884e-82
4.33163e-78
1.87207e-73
1.12841e-68
6.4562e-64
9.54483e-65
4.68061e-66
1.06356e-67
0.259103
0.0373322
0.00373044
0.000286147
3.36329e-05
2.90309e-07
1.55803e-09
5.9401e-12
1.85231e-14
5.23354e-17
1.30169e-19
2.51657e-22
3.53409e-25
3.67237e-28
2.80881e-31
1.27721e-34
8.53679e-40
2.6358e-89
3.05326e-87
1.93967e-87
4.82477e-83
4.59846e-78
5.90323e-73
7.4259e-69
6.97992e-70
2.9963e-71
5.51954e-72
0.259049
0.0372872
0.00371216
0.000281868
3.24174e-05
2.60297e-07
1.24626e-09
7.85381e-12
6.27203e-16
3.49455e-20
1.34203e-23
4.20215e-26
1.11834e-29
1.24677e-32
5.33367e-35
1.54069e-37
2.29138e-42
-1.26383e-95
3.06183e-86
1.73831e-83
5.9954e-85
-5.10056e-84
-1.64093e-76
2.88971e-68
1.81737e-69
6.50261e-71
1.66398e-72
0.259004
0.0372424
0.00369361
0.000277474
3.11282e-05
2.28215e-07
9.17079e-10
3.99501e-12
1.63549e-45
5.71563e-42
1.82312e-39
1.51941e-41
2.48589e-47
-3.36055e-61
1.27067e-69
2.05144e-73
-1.10218e-79
1.57293e-77
1.51407e-80
3.20096e-84
4.45079e-86
-5.40964e-77
7.89117e-69
4.77929e-70
1.63823e-71
4.22508e-73
0.258975
0.0372131
0.00368169
0.000274668
3.02593e-05
2.06734e-07
7.18654e-10
2.10238e-12
4.67228e-55
9.43733e-47
2.88284e-44
1.57255e-46
8.6055e-51
1.40328e-54
2.75361e-58
3.61973e-62
3.30923e-66
2.62931e-70
1.8966e-74
1.16805e-78
5.84829e-83
-2.72387e-79
2.17669e-71
2.27828e-72
1.14778e-73
4.88598e-75
0.258977
0.0372136
0.00368169
0.000274658
3.01648e-05
2.03058e-07
6.84761e-10
1.83406e-12
1.55122e-56
1.87355e-49
6.49913e-47
6.40629e-49
6.27711e-53
1.72988e-56
5.04021e-60
1.21008e-63
2.26808e-67
3.33386e-71
3.92095e-75
3.59537e-79
2.46903e-83
-3.69007e-79
2.00256e-71
2.00745e-72
9.29088e-74
3.75074e-75
0.259002
0.0372417
0.00369338
0.00027743
3.08703e-05
2.17603e-07
8.04625e-10
2.63073e-12
1.43419e-53
2.25979e-44
7.02972e-42
1.75365e-44
5.16897e-50
4.81769e-57
3.92819e-62
5.08975e-65
2.67806e-69
5.27365e-74
1.10722e-77
1.19116e-81
6.36993e-86
-7.94629e-77
9.84008e-69
5.91776e-70
1.92184e-71
4.86294e-73
0.259049
0.0372872
0.00371192
0.000281812
3.20952e-05
2.46391e-07
1.08506e-09
5.65713e-12
3.20736e-17
-1.41075e-29
1.76596e-35
2.82417e-34
3.25499e-47
2.25466e-37
3.06285e-37
4.42606e-40
2.80284e-47
9.42801e-64
4.59157e-74
-2.44606e-75
-1.89582e-83
2.25534e-83
7.06501e-83
1.63181e-84
9.00963e-86
-3.64295e-76
5.99632e-68
4.63738e-69
1.94858e-70
6.06104e-72
0.259101
0.0373313
0.00373011
0.000286079
3.33498e-05
2.78204e-07
1.4196e-09
5.1475e-12
1.53865e-14
4.36232e-17
8.52696e-20
7.63677e-23
2.96923e-26
9.37452e-30
5.5608e-33
3.75778e-36
2.11365e-41
-5.2232e-91
7.14435e-86
9.64043e-87
3.60538e-87
-9.93602e-82
-4.29601e-76
2.37712e-68
2.4698e-69
1.27679e-70
4.54959e-72
0.259155
0.0373652
0.00374332
0.000289148
3.428e-05
3.0251e-07
1.67714e-09
6.59086e-12
2.0489e-14
5.41566e-17
1.22017e-19
2.29291e-22
3.48194e-25
4.15239e-28
3.54955e-31
1.68804e-34
1.09535e-39
-6.2635e-85
4.02981e-79
3.91456e-84
2.99062e-84
2.30586e-79
2.24254e-74
4.51297e-69
5.8891e-70
3.41103e-71
1.66359e-72
0.259209
0.0373855
0.0037505
0.000290853
3.48207e-05
3.16864e-07
1.82698e-09
7.4238e-12
2.29969e-14
5.69815e-17
1.13598e-19
1.78961e-22
2.17783e-25
1.97616e-28
1.24011e-31
9.07435e-35
3.35906e-41
-5.05507e-79
3.0496e-70
7.72631e-74
-2.36539e-80
-2.09117e-77
-1.35954e-72
4.06402e-69
6.43568e-68
1.50802e-68
1.53051e-69
0.259234
0.0373955
0.00375351
0.000291513
3.5058e-05
3.23372e-07
1.88948e-09
7.72292e-12
2.36431e-14
5.67513e-17
1.08956e-19
1.67415e-22
2.03056e-25
1.88575e-28
1.27728e-31
1.16338e-34
3.73458e-40
1.60434e-49
6.85636e-56
6.37157e-57
-8.25108e-65
2.47001e-62
2.55558e-65
5.44527e-71
5.24143e-75
8.36684e-71
-1.96732e-64
-3.19535e-64
6.91175e-64
1.2114e-64
0.259249
0.0373924
0.00375278
0.00029149
3.50984e-05
3.24862e-07
1.89954e-09
7.71274e-12
2.31867e-14
5.39884e-17
1.00093e-19
1.49756e-22
1.81996e-25
1.80048e-28
1.45943e-31
9.9569e-35
6.22263e-38
4.07969e-41
2.75664e-44
1.61588e-47
7.66469e-51
2.8713e-54
8.11634e-58
1.65637e-61
2.39944e-65
3.29945e-67
-8.77178e-60
-1.81545e-60
2.94541e-60
3.86035e-61
0.25928
0.037388
0.00375004
0.000291025
3.50288e-05
3.23546e-07
1.88218e-09
7.56095e-12
2.23271e-14
5.07287e-17
9.14615e-20
1.33556e-22
1.60348e-25
1.60473e-28
1.36704e-31
1.02728e-34
7.1468e-38
4.72331e-41
2.87915e-44
1.55138e-47
7.28594e-51
2.99354e-54
1.08326e-57
3.41839e-61
-5.86899e-66
4.24302e-62
-6.0424e-56
-4.58394e-57
9.38017e-57
9.75236e-58
0.259297
0.0373817
0.00374659
0.000290331
3.48807e-05
3.20804e-07
1.85206e-09
7.35873e-12
2.14078e-14
4.77435e-17
8.43792e-20
1.21116e-22
1.43932e-25
1.44278e-28
1.24579e-31
9.52013e-35
6.63345e-38
4.24197e-41
1.3403e-44
-1.98291e-46
-3.42176e-48
-5.39222e-50
-8.32293e-52
-1.25088e-53
-1.79917e-55
7.23181e-57
-5.38788e-51
-9.49336e-54
5.7364e-53
3.77352e-54
0.259315
0.0373721
0.00374139
0.00028922
3.46436e-05
3.16127e-07
1.80682e-09
7.09661e-12
2.03666e-14
4.47511e-17
7.79855e-20
1.11117e-22
1.33542e-25
-6.49429e-29
-9.74741e-30
-3.01596e-31
-8.06112e-33
-1.90632e-34
-4.13587e-36
-8.36058e-38
-1.59757e-39
-2.92018e-41
-5.09978e-43
-8.56041e-45
-1.36797e-46
-2.10867e-48
-1.14923e-45
2.05182e-48
5.78208e-49
1.89506e-50
0.259328
0.0373666
0.00373604
0.000287634
1.80901e-05
9.63379e-07
4.46319e-08
1.83423e-09
6.78878e-11
2.29025e-12
7.11025e-14
2.04805e-15
5.51123e-17
1.39439e-18
3.33755e-20
7.60063e-22
1.65484e-23
3.45584e-25
6.93098e-27
1.33453e-28
2.46571e-30
4.36858e-32
7.42378e-34
1.21039e-35
1.89497e-37
2.8494e-39
4.11752e-41
5.71946e-43
7.64645e-45
9.82417e-47
0.259342
0.0373577
0.00373122
0.00028657
1.7955e-05
9.53275e-07
4.40302e-08
1.80401e-09
6.6571e-11
2.23941e-12
6.93487e-14
1.99347e-15
5.35608e-17
1.35373e-18
3.2365e-20
7.35665e-22
1.59638e-23
3.31604e-25
6.60372e-27
1.26158e-28
2.31202e-30
4.06386e-32
6.85386e-34
1.10928e-35
1.72367e-37
2.57293e-39
3.69091e-41
5.09014e-43
6.75682e-45
8.62e-47
0.259349
0.0373519
0.00372847
0.000286023
1.7887e-05
9.47326e-07
4.36322e-08
1.78215e-09
6.55386e-11
2.19643e-12
6.77553e-14
1.93927e-15
5.18835e-17
1.30515e-18
3.10443e-20
7.0131e-22
1.51045e-23
3.11032e-25
6.13441e-27
1.15986e-28
2.10308e-30
3.65834e-32
6.10588e-34
9.78204e-36
1.50513e-37
2.22466e-39
3.16074e-41
4.31719e-43
5.67701e-45
7.17957e-47
0.259352
0.0373491
0.00372722
0.000285774
1.78559e-05
9.44594e-07
4.34505e-08
1.77238e-09
6.50888e-11
2.17827e-12
6.70915e-14
1.91772e-15
5.1219e-17
1.28624e-18
3.05249e-20
6.87767e-22
1.47651e-23
3.02851e-25
5.94625e-27
1.11874e-28
2.01857e-30
3.49355e-32
5.80278e-34
9.25287e-36
1.41689e-37
2.0853e-39
2.94973e-41
4.01254e-43
5.25617e-45
6.62384e-47
0.259184
0.0371076
0.00365787
0.000275385
1.6813e-05
8.65757e-07
3.86601e-08
1.52825e-09
5.43412e-11
1.76031e-12
5.24917e-14
1.45351e-15
3.76502e-17
9.18116e-19
2.11929e-20
4.652e-22
9.74705e-24
1.95479e-25
3.75962e-27
6.94176e-29
1.23138e-30
2.09881e-32
3.43776e-34
5.41186e-36
8.18958e-38
1.19164e-39
1.66757e-41
2.24567e-43
2.91423e-45
3.64331e-47
0.259185
0.0371082
0.00365814
0.000275448
1.68218e-05
8.66614e-07
3.87229e-08
1.53193e-09
5.45205e-11
1.76789e-12
5.27769e-14
1.46319e-15
3.79539e-17
9.27047e-19
2.14424e-20
4.71894e-22
9.91959e-24
1.99731e-25
3.8591e-27
7.16186e-29
1.27718e-30
2.1888e-32
3.60512e-34
5.70571e-36
8.67827e-38
1.26884e-39
1.78366e-41
2.41188e-43
3.14169e-45
3.94122e-47
0.259185
0.0371097
0.00365872
0.000275577
1.68399e-05
8.68384e-07
3.88524e-08
1.5395e-09
5.48937e-11
1.78387e-12
5.33849e-14
1.48411e-15
3.86159e-17
9.46631e-19
2.1993e-20
4.86723e-22
1.03031e-23
2.0922e-25
4.08196e-27
7.65606e-29
1.3804e-30
2.39231e-32
3.98485e-34
6.3762e-36
9.80127e-38
1.44734e-39
2.05405e-41
2.80246e-43
3.68114e-45
4.65435e-47
0.259188
0.0371114
0.00365943
0.000275745
1.68656e-05
8.69904e-07
3.89507e-08
1.5455e-09
5.52082e-11
1.79799e-12
5.39376e-14
1.50319e-15
3.92116e-17
9.6393e-19
2.24733e-20
4.99765e-22
1.06516e-23
2.18254e-25
4.30475e-27
8.17159e-29
1.49202e-30
2.6186e-32
4.41612e-34
7.15145e-36
1.1115e-37
1.65753e-39
2.37263e-41
3.26144e-43
4.3112e-45
5.48213e-47
0.259191
0.037113
0.00365985
0.000275934
3.22121e-05
2.79936e-07
1.50803e-09
5.65423e-12
1.84279e-14
1.28175e-16
2.57033e-18
6.12165e-20
1.40065e-21
3.04427e-23
6.31072e-25
1.25085e-26
2.36665e-28
4.27837e-30
7.40964e-32
1.23259e-33
1.97542e-35
3.04669e-37
4.53857e-39
8.84713e-40
8.25189e-41
2.21017e-42
1.3211e-44
2.85854e-46
5.10822e-48
8.00327e-50
0.259192
0.0371136
0.00366023
0.000276065
3.22684e-05
2.81634e-07
1.52456e-09
5.66374e-12
1.54572e-14
3.25386e-17
5.47674e-20
7.57494e-23
8.80288e-26
8.76505e-29
7.52551e-32
3.36879e-35
-4.89111e-37
-1.03253e-38
-1.92051e-40
-3.40488e-42
-5.81291e-44
-9.61907e-46
-1.54949e-47
2.10608e-47
2.41844e-47
1.70778e-48
5.83914e-48
2.07462e-49
4.88726e-51
9.17214e-53
0.259193
0.0371125
0.00365999
0.000276084
3.22989e-05
2.82938e-07
1.54193e-09
5.78786e-12
1.60254e-14
3.4359e-17
5.90465e-20
8.33997e-23
9.87435e-26
9.98286e-29
8.80471e-32
6.96566e-35
5.10952e-38
3.56014e-41
2.33765e-44
1.4103e-47
7.67826e-51
2.87424e-54
-1.31744e-56
1.53502e-54
1.09348e-53
1.6712e-54
3.6195e-51
1.73852e-52
5.01184e-54
1.08144e-55
0.259191
0.037108
0.00365843
0.000275863
3.22794e-05
2.83444e-07
1.55439e-09
5.90351e-12
1.66561e-14
3.66437e-17
6.49284e-20
9.46185e-23
1.15071e-25
1.18378e-28
1.04958e-31
8.30555e-35
6.22648e-38
4.6724e-41
3.45591e-44
2.37944e-47
1.48662e-50
8.41275e-54
4.3004e-57
2.81588e-60
1.86255e-59
4.57781e-60
3.51116e-54
2.02588e-55
6.69142e-57
1.57008e-58
0.259184
0.037098
0.00365469
0.000275222
3.21715e-05
2.82427e-07
1.55563e-09
5.98344e-12
1.72985e-14
3.94958e-17
7.32775e-20
1.12042e-22
1.4208e-25
1.4972e-28
1.31516e-31
9.83494e-35
1.33118e-38
4.28581e-44
2.43908e-47
2.05927e-50
1.17384e-54
-1.05324e-58
3.6795e-62
4.84798e-64
4.51923e-65
-7.23885e-65
4.06602e-57
2.56496e-58
9.17439e-60
2.22853e-61
0.259175
0.0370793
0.00364762
0.000273918
3.19164e-05
2.78602e-07
1.53338e-09
5.96152e-12
1.77628e-14
4.27534e-17
8.49727e-20
1.39744e-22
1.8922e-25
2.07902e-28
1.77495e-31
2.09534e-34
1.26798e-40
-6.13805e-56
1.24948e-59
2.43688e-60
-3.77466e-68
2.15219e-67
6.60437e-72
4.1405e-73
1.77302e-71
-3.81544e-68
3.55348e-60
2.54183e-61
1.01293e-62
2.57655e-64
0.259161
0.037049
0.0036358
0.000271656
3.14356e-05
2.70149e-07
1.46739e-09
5.70846e-12
1.75602e-14
4.54573e-17
9.99971e-20
1.85583e-22
2.86885e-25
3.5874e-28
3.29697e-31
1.6556e-34
8.79645e-40
-8.46351e-82
3.72376e-77
9.78553e-82
4.22311e-79
3.25752e-74
4.38106e-69
1.50736e-63
1.54238e-64
7.66068e-66
2.1838e-67
0.259139
0.0370061
0.00361863
0.000268251
3.06663e-05
2.55117e-07
1.3312e-09
5.00466e-12
1.54481e-14
4.40813e-17
1.12779e-19
2.12414e-22
2.63404e-25
2.27066e-28
1.53153e-31
6.94635e-35
4.70621e-40
4.61643e-89
5.32559e-85
6.48398e-81
1.8726e-81
1.66757e-77
3.79074e-72
8.15004e-66
5.84511e-67
2.29642e-68
6.03171e-70
0.259122
0.0369542
0.00359765
0.000263938
2.96333e-05
2.33077e-07
1.10656e-09
6.94522e-12
5.36356e-16
2.72733e-20
9.76079e-24
1.36309e-26
1.57949e-30
2.62113e-34
9.12046e-36
5.25195e-38
5.93352e-43
-2.41755e-89
1.11423e-78
2.67002e-77
4.21244e-79
1.16324e-80
-1.37666e-73
3.03283e-65
1.94794e-66
7.07718e-68
1.78387e-69
0.259102
0.0369055
0.00357765
0.000259739
2.85724e-05
2.08955e-07
8.43879e-10
3.48889e-12
1.32626e-46
5.99787e-43
2.5474e-40
1.70848e-42
3.58265e-48
-5.93425e-63
4.67112e-70
2.15215e-73
-2.96275e-80
2.47807e-74
5.27065e-77
6.20966e-79
2.67033e-80
-5.29185e-74
1.02365e-65
6.26716e-67
2.17319e-68
5.4563e-70
0.25909
0.0368757
0.00356535
0.000257147
2.78739e-05
1.92717e-07
6.84166e-10
1.94762e-12
5.39308e-56
1.47104e-47
3.68227e-45
8.00207e-48
2.04926e-52
3.18157e-56
5.83031e-60
6.92253e-64
5.79254e-68
4.22378e-72
2.80721e-76
1.61866e-80
7.30037e-85
-5.55826e-76
5.96398e-68
6.0265e-69
2.98473e-70
1.15871e-71
0.259091
0.0368757
0.00356523
0.000257133
2.77982e-05
1.8979e-07
6.55995e-10
1.73503e-12
6.61554e-59
5.15136e-51
4.46343e-48
2.40874e-50
1.55175e-54
3.90236e-58
1.03984e-61
2.23333e-65
3.5707e-69
4.29287e-73
4.04817e-77
2.98953e-81
2.31502e-86
-7.30879e-76
6.03198e-68
5.88483e-69
2.74604e-70
1.01755e-71
0.259102
0.0369049
0.00357736
0.000259691
2.83665e-05
2.00587e-07
7.49521e-10
2.34546e-12
8.27833e-54
6.63752e-45
1.21076e-42
1.01286e-45
1.28765e-51
1.77615e-58
9.41477e-64
1.1786e-66
8.54566e-71
2.51437e-75
5.06797e-79
1.23968e-80
6.58607e-82
-7.99495e-74
1.5008e-65
9.20039e-67
3.09589e-68
7.52532e-70
0.259119
0.0369528
0.00359724
0.000263862
2.93739e-05
2.22288e-07
9.75047e-10
4.87214e-12
2.28039e-17
8.359e-29
1.28977e-35
3.06984e-34
-1.44322e-47
5.51969e-39
5.01859e-38
5.99701e-41
4.87448e-48
9.69814e-65
2.73089e-75
2.46319e-77
-1.0279e-84
9.77721e-76
1.20371e-76
1.29675e-78
9.98727e-80
-2.85442e-73
6.89344e-65
5.2009e-66
2.14442e-67
6.10024e-69
0.259141
0.0370048
0.00361819
0.000268165
3.04342e-05
2.45957e-07
1.23052e-09
4.3852e-12
1.25332e-14
3.44601e-17
5.7354e-20
3.15482e-23
5.20712e-27
1.02562e-30
1.44712e-33
1.58037e-36
5.72055e-42
-1.45449e-87
8.37047e-84
4.89356e-80
1.30201e-80
1.02208e-81
-1.36483e-73
2.83528e-65
2.63524e-66
1.26488e-67
4.00153e-69
0.259161
0.0370482
0.00363534
0.000271571
3.1262e-05
2.63747e-07
1.40507e-09
5.39341e-12
1.67194e-14
4.51878e-17
1.08443e-19
2.24816e-22
3.84094e-25
5.27215e-28
5.38971e-31
3.06542e-34
2.00638e-39
2.44803e-87
8.20966e-81
1.0485e-84
-3.23655e-83
-5.21115e-78
-1.58121e-72
7.36078e-66
7.76358e-67
4.03275e-68
1.74347e-69
0.259183
0.0370805
0.00364726
0.000273841
3.17963e-05
2.74523e-07
1.49859e-09
5.82189e-12
1.75788e-14
4.36611e-17
9.05566e-20
1.55738e-22
2.20001e-25
2.4987e-28
2.11967e-31
2.10807e-34
7.1487e-41
-1.67558e-80
2.4307e-72
7.43349e-75
1.14663e-77
-9.15737e-75
-3.77499e-69
1.22729e-63
4.13839e-64
4.61857e-65
2.77007e-66
0.259175
0.0370974
0.00365443
0.000275143
3.20934e-05
2.79879e-07
1.53703e-09
5.92801e-12
1.73405e-14
4.04348e-17
7.71419e-20
1.21417e-22
1.5767e-25
1.67782e-28
1.43753e-31
1.86288e-34
1.12441e-39
7.74305e-49
1.41994e-55
5.71504e-57
-8.26645e-66
1.0949e-62
2.61146e-66
1.6701e-68
2.97038e-72
-1.31282e-67
9.52015e-60
1.66791e-60
1.25602e-61
5.43898e-63
0.259191
0.0371042
0.00365798
0.000275801
3.22223e-05
2.81872e-07
1.54428e-09
5.88353e-12
1.67415e-14
3.73408e-17
6.72974e-20
9.97481e-23
1.22831e-25
1.26731e-28
1.1093e-31
8.52706e-35
6.18983e-38
4.75613e-41
3.8065e-44
2.56212e-47
1.30077e-50
4.89308e-54
1.38241e-57
2.9794e-61
5.10388e-65
-2.83298e-64
2.01601e-56
2.81926e-57
1.74071e-58
6.73266e-60
0.259193
0.0371117
0.00365947
0.000275994
3.2257e-05
2.81904e-07
1.53601e-09
5.77998e-12
1.60944e-14
3.47946e-17
6.03695e-20
8.60603e-23
1.02535e-25
1.03759e-28
9.10464e-32
7.14957e-35
5.26053e-38
3.76616e-41
2.58424e-44
1.63892e-47
9.44559e-51
4.92926e-54
2.3254e-57
9.87531e-61
1.51952e-64
-1.17271e-60
4.24995e-53
4.67235e-54
2.30608e-55
7.74433e-57
0.259193
0.037113
0.00365991
0.000275999
3.22385e-05
2.80912e-07
1.52115e-09
5.66093e-12
1.55019e-14
3.27904e-17
5.5495e-20
7.71092e-23
8.98752e-26
8.95629e-29
7.79633e-32
6.07515e-35
4.34974e-38
2.87502e-41
1.03102e-44
-1.22506e-46
-2.10321e-48
-3.2755e-50
-5.02056e-52
-7.48498e-54
-1.07858e-55
-1.09708e-56
1.68927e-49
1.26616e-50
4.5468e-52
1.20949e-53
0.259191
0.0371124
0.00365952
0.000275864
3.21895e-05
2.79447e-07
1.50294e-09
5.5406e-12
1.4983e-14
3.12105e-17
5.19356e-20
7.12921e-23
8.16021e-26
-9.8563e-29
-7.33554e-30
-2.16838e-31
-5.41429e-33
-1.22281e-34
-2.56745e-36
-5.05424e-38
-9.43408e-40
-1.68757e-41
-2.91073e-43
-4.78353e-45
-7.6411e-47
-1.16468e-48
1.28095e-45
5.44634e-47
1.30989e-48
2.56573e-50
0.259188
0.0371106
0.0036591
0.000275678
1.68567e-05
8.69074e-07
3.88883e-08
1.54169e-09
5.50071e-11
1.78871e-12
5.35538e-14