/*--------------------------------*- C++ -*----------------------------------*\
  =========                 |
  \\      /  F ield         | OpenFOAM: The Open Source CFD Toolbox
   \\    /   O peration     | Website:  https://openfoam.org
    \\  /    A nd           | Version:  10
     \\/     M anipulation  |
\*---------------------------------------------------------------------------*/
FoamFile
{
    format      ascii;
    class       volScalarField;
    location    "4";
    object      T;
}
// * * * * * * * * * * * * * * * * * * * * * * * * * * * * * * * * * * * * * //

dimensions      [0 0 0 1 0 0 0];

internalField   nonuniform List<scalar> 
96305
(
0.550758
0.189488
0.0461651
0.00859997
0.00128896
0.000161159
1.7259e-05
1.61506e-06
1.34162e-07
1.0022e-08
6.80517e-10
4.23879e-11
2.44125e-12
1.30923e-13
6.57952e-15
3.11573e-16
1.39679e-17
5.94936e-19
2.4135e-20
9.33882e-22
3.44974e-23
1.21692e-24
4.1002e-26
1.31961e-27
4.05779e-29
1.19418e-30
3.36305e-32
9.06219e-34
2.34034e-35
5.77836e-37
0.550776
0.189479
0.0461545
0.00859594
0.00128807
0.000161035
1.72457e-05
1.61368e-06
1.34021e-07
1.00082e-08
6.79269e-10
4.22826e-11
2.43317e-12
1.30367e-13
6.54585e-15
3.09801e-16
1.38877e-17
5.9185e-19
2.4036e-20
9.31419e-22
3.44644e-23
1.21792e-24
4.1111e-26
1.32568e-27
4.08552e-29
1.20501e-30
3.40128e-32
9.18058e-34
2.37333e-35
5.85965e-37
0.55079
0.189464
0.0461419
0.00859198
0.00128735
0.000160972
1.72426e-05
1.61346e-06
1.34003e-07
1.00068e-08
6.79023e-10
4.22432e-11
2.42853e-12
1.29956e-13
6.51754e-15
3.08289e-16
1.38277e-17
5.90396e-19
2.40476e-20
9.35099e-22
3.47214e-23
1.23074e-24
4.16437e-26
1.34494e-27
4.1446e-29
1.21988e-30
3.43419e-32
9.23812e-34
2.3776e-35
5.83241e-37
0.550814
0.18938
0.0460656
0.00856197
0.00128202
0.000159938
1.70868e-05
1.59418e-06
1.32037e-07
9.83607e-09
6.65926e-10
4.13295e-11
2.36977e-12
1.26491e-13
6.33442e-15
2.9996e-16
1.35265e-17
5.83647e-19
2.41416e-20
9.57025e-22
3.63277e-23
1.31938e-24
4.58373e-26
1.52323e-27
4.83775e-29
1.46925e-30
4.25463e-32
1.16822e-33
3.05466e-35
7.59425e-37
0.550997
0.18921
0.0459241
0.00843188
0.00193198
5.22314e-05
8.64427e-07
1.01566e-08
1.10809e-10
2.36141e-12
1.1126e-13
5.96083e-15
3.00513e-16
1.40071e-17
6.03693e-19
2.40032e-20
8.69948e-22
2.78869e-23
7.25199e-25
1.02734e-26
-3.85678e-28
-4.56701e-29
5.8446e-29
6.03794e-30
2.97879e-31
1.13708e-32
1.21924e-34
4.96261e-36
1.68688e-37
5.02691e-39
0.551023
0.189113
0.0458273
0.0083975
0.00192258
5.27725e-05
8.97768e-07
1.0741e-08
9.7987e-11
7.09695e-13
4.18646e-15
2.04352e-17
8.36761e-20
2.92279e-22
8.95119e-25
2.57075e-27
8.43551e-30
-7.31878e-33
-5.00173e-33
-3.44442e-34
-1.81362e-35
-8.16493e-37
1.6187e-34
8.37106e-35
8.88842e-36
4.9962e-37
2.40565e-37
1.53112e-38
6.58389e-40
2.25235e-41
0.551057
0.189058
0.045767
0.00836977
0.00191124
5.21856e-05
8.81912e-07
1.04557e-08
9.47023e-11
6.80999e-13
3.96858e-15
1.89265e-17
7.43367e-20
2.4307e-22
6.79283e-25
1.71246e-27
4.11655e-30
9.25418e-33
1.85151e-35
3.34838e-38
5.70463e-41
1.04176e-43
2.44607e-41
4.50078e-40
1.47873e-40
1.57875e-41
4.78461e-40
3.84374e-41
1.88226e-42
6.79235e-44
0.551094
0.188979
0.0456741
0.00832488
0.00189146
5.09317e-05
8.44247e-07
9.80571e-09
8.71539e-11
6.15517e-13
3.50636e-15
1.61305e-17
5.96216e-20
1.75761e-22
4.09572e-25
7.33964e-28
1.13865e-30
3.11319e-33
1.61933e-35
7.24608e-38
5.8532e-40
2.40716e-42
6.38782e-45
1.24235e-47
5.89069e-47
4.97108e-47
8.2981e-43
7.85336e-44
4.30172e-45
1.63764e-46
0.551141
0.188851
0.0455269
0.00825135
0.00185765
4.86621e-05
7.75653e-07
8.63306e-09
7.38208e-11
5.05341e-13
2.7846e-15
1.19503e-17
3.72558e-20
7.50573e-23
8.11452e-26
6.35091e-29
-2.0907e-32
-5.10943e-35
-3.01994e-37
-7.99013e-40
-1.98537e-42
2.46485e-42
1.24729e-41
3.17276e-44
5.92372e-47
-1.34285e-44
3.0033e-39
6.62698e-41
1.13755e-42
1.71538e-44
0.55119
0.188653
0.0452984
0.00813432
0.00180209
4.48253e-05
6.61089e-07
6.72945e-09
5.29838e-11
3.26008e-13
1.4104e-15
3.76546e-18
5.71835e-21
5.48987e-24
5.29246e-27
-1.3987e-29
1.02015e-34
2.53323e-41
1.14814e-44
1.3469e-49
-3.18571e-51
2.13076e-37
4.6736e-36
5.94046e-38
1.1216e-41
-2.92169e-41
2.66825e-34
1.36269e-36
7.9642e-39
5.60463e-41
0.551252
0.188364
0.0449637
0.00795984
0.00171685
3.8875e-05
4.91218e-07
4.10298e-09
2.487e-11
1.12425e-13
4.6977e-16
2.20183e-18
1.02708e-20
3.45682e-23
6.10688e-26
-4.87611e-29
5.65055e-34
2.2538e-45
2.57324e-33
8.49377e-32
3.64505e-33
1.99913e-35
1.22216e-34
8.00233e-31
9.08523e-33
7.67376e-35
5.25424e-37
0.551333
0.187984
0.0445184
0.00772342
0.00159758
3.07067e-05
2.84635e-07
1.44024e-09
6.12103e-12
1.54845e-13
3.97749e-15
5.24601e-17
4.16046e-19
5.21928e-21
8.56197e-23
-8.42048e-26
7.28987e-32
1.648e-41
2.35255e-29
1.23502e-27
5.59843e-29
4.02081e-31
2.32332e-32
2.52696e-28
3.69933e-30
3.85374e-32
3.28945e-34
0.551424
0.187557
0.0440064
0.00744773
0.00145341
2.14165e-05
1.01563e-07
1.18085e-10
1.8092e-13
9.46752e-16
9.50993e-19
7.37649e-19
1.40499e-20
3.18354e-13
1.66094e-15
4.85284e-18
-1.05766e-24
-3.30122e-38
6.84789e-25
2.58552e-23
7.14281e-25
4.95815e-27
1.50601e-29
7.24545e-26
1.26356e-27
1.58821e-29
1.52281e-31
0.551519
0.187173
0.0435393
0.00719407
0.00131513
1.35581e-05
1.39532e-08
5.53401e-12
9.33323e-13
1.79848e-07
1.20303e-10
-1.56564e-10
2.23728e-16
-3.95497e-19
6.1372e-16
1.25035e-15
-3.60067e-21
1.80492e-17
8.49355e-19
9.44914e-21
5.55286e-23
1.85122e-25
2.67548e-23
4.95292e-25
6.50992e-27
6.64915e-29
0.551568
0.186939
0.0432564
0.00704056
0.00122547
9.25878e-06
1.51346e-10
6.49377e-12
4.71553e-07
0.000783313
0.00174939
0.0231354
0.00329231
0.00022228
7.06821e-06
1.29077e-07
1.19625e-09
7.32628e-12
3.17642e-14
9.94897e-17
3.84453e-19
1.39623e-21
1.95661e-20
2.88599e-22
3.69442e-24
4.15666e-26
0.551568
0.186941
0.0432563
0.0070403
0.00121399
8.47064e-06
1.34614e-10
5.29538e-12
0.024843
38.5715
882.601
9398.14
0.756457
0.0401045
0.00185685
5.66352e-05
1.08691e-06
1.37018e-08
1.17383e-10
6.81709e-13
2.66806e-15
9.08507e-18
1.40506e-18
2.12435e-20
2.7505e-22
3.07797e-24
0.551517
0.187169
0.0435364
0.00719278
0.00128471
1.10534e-05
1.05523e-09
8.68832e-12
8.9381e-05
0.00399073
8.30287e-05
-0.00191004
-0.000453233
3.05178e-05
4.75846e-06
3.34503e-06
8.66667e-09
7.27069e-12
1.14153e-13
8.29986e-16
3.71425e-18
1.02091e-20
4.68466e-21
9.87169e-23
1.41534e-24
1.55035e-26
0.551426
0.187553
0.0440024
0.0074457
0.00141477
1.74123e-05
4.5829e-08
7.3098e-13
8.62779e-16
9.53782e-22
1.21886e-26
1.43327e-22
9.37634e-11
1.47828e-06
2.1859e-09
-6.12158e-11
-7.46932e-16
-4.68136e-19
3.1689e-15
2.46136e-14
-2.19807e-21
1.37464e-20
7.39651e-19
5.62092e-20
5.04705e-22
1.63687e-24
2.08005e-23
4.28808e-25
5.81278e-27
5.60693e-29
0.551332
0.187978
0.0445125
0.00772064
0.00156183
2.6414e-05
1.86338e-07
5.69731e-10
7.06824e-12
3.385e-13
5.5236e-15
3.95073e-17
2.73519e-18
1.8287e-14
2.95426e-16
1.68748e-18
-1.79258e-23
-1.02114e-37
1.67912e-27
7.12197e-24
3.67457e-24
5.66842e-26
1.9535e-28
1.04302e-25
1.91993e-27
2.19173e-29
1.69069e-31
0.551254
0.188356
0.0449574
0.00795651
0.00168936
3.53129e-05
3.90556e-07
2.67708e-09
1.29489e-11
7.13035e-14
7.31073e-16
1.24078e-17
1.20485e-19
7.40449e-22
9.79508e-24
1.63894e-26
5.54688e-31
1.21557e-43
3.65405e-32
9.29551e-29
2.07564e-28
5.28646e-30
2.52472e-31
5.28271e-28
8.76992e-30
8.25244e-32
4.40987e-34
0.551187
0.18864
0.0452877
0.00813027
0.00178249
4.22471e-05
5.81249e-07
5.44185e-09
3.87336e-11
1.99772e-13
6.91343e-16
1.72312e-18
3.51364e-21
6.12162e-24
9.06203e-27
-1.7058e-29
2.59294e-34
6.07818e-48
1.5082e-37
4.53677e-34
6.83033e-33
3.13323e-34
2.04296e-33
2.38611e-30
3.63781e-32
2.85186e-34
1.13256e-36
0.551178
0.18886
0.045524
0.0082483
0.00184431
4.69257e-05
7.20386e-07
7.68793e-09
6.32294e-11
4.16965e-13
2.13099e-15
7.66962e-18
1.7041e-20
2.00536e-23
1.32581e-26
-2.84749e-29
2.48838e-33
6.99347e-40
5.41554e-43
6.10332e-48
-6.67419e-49
5.22321e-46
4.65926e-42
1.78481e-38
9.38078e-39
5.60629e-36
6.26328e-33
9.32466e-35
6.30244e-37
2.40108e-39
0.551063
0.188975
0.0456679
0.00832098
0.00188243
4.979e-05
8.07924e-07
9.16876e-09
7.96812e-11
5.5068e-13
3.06435e-15
1.36372e-17
4.73685e-20
1.22233e-22
2.14444e-25
2.40969e-28
3.60587e-31
3.28581e-32
3.84089e-34
1.81041e-36
5.36775e-39
1.12506e-41
1.6398e-44
4.30128e-45
3.15702e-44
1.28899e-40
4.79448e-36
1.37461e-37
2.43013e-39
3.72681e-41
0.551059
0.189039
0.0457566
0.00836587
0.00190469
5.14066e-05
8.57488e-07
1.00256e-08
8.9503e-11
6.33691e-13
3.62119e-15
1.67776e-17
6.31264e-20
1.93931e-22
4.97276e-25
1.10724e-27
2.17988e-30
4.10894e-33
8.70805e-36
2.05672e-38
5.09815e-41
1.16192e-43
2.34488e-46
6.41997e-49
9.40699e-49
-5.75013e-46
4.1967e-39
1.32534e-40
2.57665e-42
4.66717e-44
0.551025
0.189108
0.0458202
0.0083933
0.00191834
5.23305e-05
8.84719e-07
1.04882e-08
9.48476e-11
6.80145e-13
3.95544e-15
1.89023e-17
7.50033e-20
2.50497e-22
7.22427e-25
1.88363e-27
4.72447e-30
1.16539e-32
2.62999e-35
2.32806e-38
-1.29047e-39
-5.55254e-41
-3.87683e-42
6.40981e-42
3.20324e-41
1.03043e-41
1.33742e-38
1.04977e-39
5.52853e-41
2.43584e-42
0.550999
0.189203
0.045917
0.00842811
0.00192421
5.23191e-05
8.82363e-07
1.04346e-08
9.39286e-11
6.70635e-13
3.91314e-15
1.95368e-17
1.09052e-19
1.58578e-21
4.92221e-23
1.56562e-24
4.12304e-26
6.24327e-28
-2.05702e-29
-2.59821e-30
-1.66169e-31
-8.55596e-33
-3.90192e-34
8.13192e-35
7.42722e-35
7.13651e-36
2.7049e-35
1.23294e-36
4.65024e-38
1.56822e-39
0.550816
0.189374
0.0460585
0.00855828
0.0012808
0.000159661
1.70371e-05
1.58688e-06
1.31134e-07
9.73925e-09
6.56827e-10
4.05701e-11
2.31231e-12
1.2256e-13
6.08729e-15
2.85593e-16
1.2744e-17
5.43581e-19
2.21986e-20
8.67268e-22
3.23724e-23
1.15373e-24
3.9259e-26
1.2766e-27
3.97324e-29
1.18543e-30
3.38619e-32
9.23935e-34
2.4134e-35
6.02676e-37
0.550793
0.189459
0.0461346
0.00858817
0.0012861
0.000160678
1.71891e-05
1.60553e-06
1.33021e-07
9.90183e-09
6.69186e-10
4.1424e-11
2.36719e-12
1.25755e-13
6.25335e-15
2.92904e-16
1.29936e-17
5.47932e-19
2.20101e-20
8.42783e-22
3.07601e-23
1.07026e-24
3.55162e-26
1.12534e-27
3.40718e-29
9.86977e-31
2.73791e-32
7.28077e-34
1.85947e-35
4.55759e-37
0.550779
0.189474
0.046148
0.0085923
0.00128685
0.000160746
1.71931e-05
1.60589e-06
1.33055e-07
9.90528e-09
6.69701e-10
4.14823e-11
2.37319e-12
1.26273e-13
6.28975e-15
2.94916e-16
1.30827e-17
5.51052e-19
2.20908e-20
8.44014e-22
3.07544e-23
1.06934e-24
3.55066e-26
1.12698e-27
3.42316e-29
9.9583e-31
2.77781e-32
7.43278e-34
1.91112e-35
4.7273e-37
0.55076
0.189482
0.0461581
0.00859624
0.00128773
0.000160867
1.72062e-05
1.60729e-06
1.33204e-07
9.92017e-09
6.71028e-10
4.16043e-11
2.38258e-12
1.26936e-13
6.33002e-15
2.97157e-16
1.31908e-17
5.55756e-19
2.22792e-20
8.51136e-22
3.10185e-23
1.07916e-24
3.58708e-26
1.14024e-27
3.46903e-29
1.01144e-30
2.82756e-32
7.58531e-34
1.95785e-35
4.86441e-37
0.551326
0.192859
0.0486805
0.00959426
0.00155228
0.000213366
2.55399e-05
2.71214e-06
2.59248e-07
2.25698e-08
1.80689e-09
1.34102e-10
9.2905e-12
6.04391e-13
3.71132e-14
2.1606e-15
1.19674e-16
6.32351e-18
3.1932e-19
1.5425e-20
7.13178e-22
3.15621e-23
1.33701e-24
5.42112e-26
2.10402e-27
7.81942e-29
2.78303e-30
9.49162e-32
3.10692e-33
9.74953e-35
0.551311
0.192864
0.0486926
0.00960116
0.00155462
0.000213916
2.56373e-05
2.72603e-06
2.60929e-07
2.27481e-08
1.82382e-09
1.35569e-10
9.40773e-12
6.13181e-13
3.77376e-14
2.20302e-15
1.22441e-16
6.49639e-18
3.29598e-19
1.60035e-20
7.43928e-22
3.3103e-23
1.40992e-24
5.74679e-26
2.2414e-27
8.36752e-29
2.99091e-30
1.02393e-31
3.36304e-33
1.05852e-34
0.551276
0.192876
0.0487206
0.00961696
0.00155992
0.000215151
2.58544e-05
2.7573e-06
2.64794e-07
2.31694e-08
1.86484e-09
1.39187e-10
9.7005e-12
6.35239e-13
3.93032e-14
2.30889e-15
1.29297e-16
6.92128e-18
3.54685e-19
1.74076e-20
8.18304e-22
3.68264e-23
1.58635e-24
6.53729e-26
2.57688e-27
9.71367e-29
3.50334e-30
1.20925e-31
4.00117e-33
1.26766e-34
0.551208
0.192879
0.0487615
0.00964579
0.00157063
0.000216972
2.60948e-05
2.78504e-06
2.67709e-07
2.34483e-08
1.88907e-09
1.41078e-10
9.83333e-12
6.43752e-13
3.98224e-14
2.34085e-15
1.3139e-16
7.06504e-18
3.64434e-19
1.8031e-20
8.55188e-22
3.88517e-23
1.68985e-24
7.03117e-26
2.7963e-27
1.06227e-28
3.8553e-30
1.33755e-31
4.44446e-33
1.41385e-34
0.551142
0.192852
0.0487992
0.00968503
0.00277541
0.000153674
5.55527e-06
1.4126e-07
2.69222e-09
4.29733e-11
8.10043e-13
2.95433e-14
1.64348e-15
9.64296e-17
5.46335e-18
2.96501e-19
1.54467e-20
7.73978e-22
3.72933e-23
1.72663e-24
7.67466e-26
3.27686e-27
1.34333e-28
5.27996e-30
2.1892e-30
2.73344e-31
5.11511e-33
2.79179e-34
1.25454e-35
4.92565e-37
0.551055
0.192853
0.0488433
0.00971466
0.00279294
0.000155741
5.66852e-06
1.44692e-07
2.726e-09
3.94921e-11
4.53811e-13
4.23673e-15
3.27773e-17
2.14087e-19
1.20433e-21
5.97073e-24
2.68034e-26
1.1527e-28
6.67088e-31
1.17788e-32
4.05135e-34
1.48479e-35
5.27612e-37
1.79896e-38
6.77952e-37
6.8983e-37
4.82618e-36
4.40067e-37
2.62061e-38
1.23517e-39
0.550986
0.19286
0.0488771
0.00973403
0.00280333
0.000157181
5.76769e-06
1.48793e-07
2.8407e-09
4.17976e-11
4.88167e-13
4.62326e-15
3.61036e-17
2.36267e-19
1.32274e-21
6.52663e-24
2.94624e-26
1.24484e-28
4.84698e-31
1.68586e-33
5.15774e-36
1.38581e-38
3.27198e-41
7.27233e-44
3.48126e-43
1.94232e-42
6.45111e-39
7.83684e-40
5.60563e-41
2.9741e-42
0.550907
0.19285
0.0488949
0.00974472
0.00280873
0.000157975
5.83137e-06
1.5194e-07
2.94527e-09
4.42196e-11
5.28165e-13
5.1029e-15
4.03008e-17
2.62712e-19
1.43717e-21
6.82556e-24
2.96994e-26
1.24173e-28
4.89274e-31
1.72093e-33
5.34922e-36
1.49783e-38
3.7965e-41
8.58934e-44
1.7203e-46
2.32436e-47
1.48363e-41
2.07992e-42
1.64909e-43
9.15552e-45
0.550812
0.192814
0.0488889
0.00974251
0.00280648
0.000157756
5.83601e-06
1.53266e-07
3.02049e-09
4.65169e-11
5.72465e-13
5.67444e-15
4.52353e-17
2.86893e-19
1.42401e-21
5.58769e-24
7.53781e-27
7.38232e-31
2.42512e-33
1.01327e-35
1.25041e-39
1.12758e-41
5.12496e-41
1.34202e-43
1.85731e-46
-2.24514e-47
6.65611e-42
2.29954e-43
6.1163e-45
1.5074e-46
0.550694
0.192736
0.0488437
0.00971842
0.0027912
0.000155715
5.72321e-06
1.50295e-07
3.00075e-09
4.74873e-11
6.02804e-13
6.07649e-15
4.74965e-17
2.76317e-19
1.12188e-21
5.75095e-24
1.33278e-28
1.76567e-38
1.91923e-43
1.42983e-44
6.91545e-47
4.35325e-37
5.20754e-36
4.7779e-38
9.66684e-42
-4.71687e-43
4.75318e-37
5.37634e-39
5.40088e-41
5.45062e-43
0.550554
0.192599
0.0487425
0.00966134
0.00275543
0.00015062
5.39985e-06
1.38969e-07
2.77566e-09
4.53409e-11
6.07851e-13
6.60043e-15
5.71503e-17
3.83833e-19
1.84063e-21
5.09591e-24
4.64078e-28
6.80978e-38
6.56111e-33
1.88481e-31
5.9088e-33
2.69733e-35
8.96711e-37
5.75996e-33
4.2206e-35
1.74524e-37
4.75326e-40
0.550406
0.192402
0.0485715
0.00956201
0.00269221
0.000141262
4.77743e-06
1.16058e-07
2.30677e-09
4.16152e-11
6.61434e-13
8.22847e-15
7.51367e-17
6.69871e-19
7.77206e-21
5.35634e-23
1.06587e-26
3.97971e-34
1.13908e-28
7.17902e-27
2.34541e-28
1.30977e-30
3.06938e-33
3.08633e-30
3.94625e-32
3.56777e-34
2.2914e-36
0.550271
0.192164
0.0483457
0.00942664
0.00260302
0.000127674
3.86596e-06
1.45013e-07
3.77374e-10
5.78973e-13
2.13782e-16
3.30772e-18
3.47521e-15
1.95384e-11
5.61472e-14
2.9448e-16
3.58668e-21
-7.12058e-31
8.31601e-24
3.82543e-22
6.66265e-24
3.22675e-26
7.4107e-29
1.14719e-27
2.01185e-29
2.33705e-31
2.06964e-33
0.55017
0.191941
0.0481222
0.00928929
0.00250891
0.000113156
2.91312e-06
7.93785e-08
3.93612e-09
2.42651e-06
1.02343e-08
-2.9316e-09
4.16868e-12
2.68386e-14
4.06224e-15
4.07903e-14
-1.05399e-19
7.03734e-16
2.26846e-17
1.75133e-19
6.65942e-22
1.41509e-24
4.5747e-25
8.02886e-27
9.87342e-29
9.64252e-31
0.550112
0.191799
0.0479795
0.00920145
0.00244536
0.00010336
2.33158e-06
4.46142e-08
0.000319242
0.0310682
0.270253
6.25522
0.0232662
0.000471372
9.42166e-06
9.259e-07
1.80952e-08
1.59246e-10
9.55032e-13
3.92042e-15
1.09131e-17
1.97607e-20
3.53393e-22
4.62143e-24
5.38688e-26
5.75838e-28
0.550115
0.191801
0.0479794
0.00920113
0.00243858
0.000101663
2.2301e-06
3.94342e-08
9.9108
7131.65
176487
2.57324e+06
186.633
5.89553
0.231249
0.00623711
0.000102583
1.06578e-06
7.23666e-09
3.1811e-11
8.83301e-14
1.56073e-16
2.26704e-20
2.92918e-22
3.36132e-24
3.52613e-26
0.550168
0.191938
0.0481196
0.00928795
0.00249061
0.000108328
2.58495e-06
5.44863e-08
0.0208821
0.157334
0.0201514
0.595055
0.015992
2.28978e-05
-7.57304e-08
1.14066e-06
8.07675e-09
1.9842e-11
4.21854e-13
4.08873e-15
1.8104e-17
4.08655e-20
7.3352e-23
1.42973e-24
1.965e-26
2.22787e-28
0.55027
0.192164
0.0483428
0.00942494
0.00258013
0.000121364
3.39667e-06
1.07473e-07
3.5393e-11
3.00259e-21
4.61367e-23
8.50546e-17
4.78144e-07
8.30833e-06
1.43158e-08
-8.96136e-10
7.08821e-12
1.14617e-14
7.68443e-15
2.64838e-14
-1.32907e-20
5.84074e-20
8.45983e-18
2.91248e-19
1.99807e-21
5.20383e-24
3.17327e-25
6.78495e-27
9.63923e-29
1.08132e-30
0.550401
0.192398
0.0485675
0.00955994
0.00267214
0.000135764
4.3696e-06
1.01175e-07
1.87633e-09
3.28173e-11
4.1479e-13
2.50513e-15
3.83312e-15
1.42207e-12
1.83654e-14
9.54707e-17
3.01891e-20
7.98017e-33
2.42208e-26
1.08942e-22
1.71519e-23
1.75252e-25
4.88975e-28
1.50305e-27
2.91716e-29
3.9154e-31
3.99562e-33
0.550551
0.192596
0.0487383
0.00965923
0.00274121
0.000146844
5.12825e-06
1.28632e-07
2.55739e-09
4.33588e-11
6.29665e-13
7.6433e-15
7.50468e-17
5.89647e-19
3.95569e-21
2.06833e-23
1.32605e-26
1.61547e-36
3.95811e-31
1.15282e-27
7.64166e-28
1.24372e-29
4.0859e-32
6.29849e-30
1.07858e-31
1.17904e-33
9.88441e-36
0.550706
0.192733
0.048839
0.00971643
0.00278213
0.000153459
5.57477e-06
1.451e-07
2.89495e-09
4.62541e-11
5.9508e-13
6.05868e-15
4.77327e-17
2.81006e-19
1.14995e-21
5.41391e-24
7.87197e-29
6.26329e-41
4.68324e-36
8.27332e-33
2.20611e-32
5.95593e-34
1.3051e-35
1.83506e-32
2.77631e-34
2.48699e-36
1.65728e-38
0.550808
0.192819
0.0488888
0.00974076
0.00280092
0.000156539
5.76656e-06
1.51337e-07
2.99709e-09
4.6657e-11
5.81317e-13
5.79554e-15
4.55849e-17
2.74457e-19
1.20615e-21
6.93319e-24
7.52873e-28
1.34767e-34
1.03847e-40
5.83694e-41
-1.16508e-47
3.93064e-44
2.47802e-40
1.52608e-37
1.49324e-38
2.42802e-38
3.16405e-35
5.48794e-37
5.52634e-39
4.46864e-41
0.550886
0.192841
0.0488928
0.00974337
0.00280524
0.000157355
5.80483e-06
1.51579e-07
2.9553e-09
4.47654e-11
5.40204e-13
5.25742e-15
4.15019e-17
2.66106e-19
1.39285e-21
6.09827e-24
2.4182e-26
9.9421e-29
4.22462e-31
1.56497e-33
4.69605e-36
1.11211e-38
1.98458e-41
4.91893e-44
6.38614e-44
3.41546e-43
4.35677e-39
2.20246e-40
6.89089e-42
1.74951e-43
0.550982
0.192851
0.0488716
0.00973203
0.0028014
0.000156898
5.7625e-06
1.49045e-07
2.85876e-09
4.2329e-11
4.97565e-13
4.73179e-15
3.69217e-17
2.39459e-19
1.31675e-21
6.35149e-24
2.81525e-26
1.17677e-28
4.51735e-31
1.52991e-33
4.50933e-36
1.16065e-38
2.62677e-41
5.28576e-44
9.63265e-47
-1.90068e-48
4.00091e-42
4.74045e-43
1.42412e-43
2.7524e-44
0.551055
0.192851
0.0488409
0.00971322
0.00279189
0.000155796
5.6826e-06
1.45493e-07
2.7519e-09
4.00366e-11
4.61746e-13
4.31909e-15
3.33663e-17
2.16714e-19
1.20751e-21
5.92531e-24
2.63765e-26
1.08804e-28
4.14096e-31
1.42661e-33
4.39849e-36
1.26806e-38
5.62037e-41
9.41741e-43
2.6637e-44
3.26091e-45
-4.84212e-40
9.08801e-40
3.01362e-40
4.04042e-41
0.55114
0.19285
0.048797
0.0096836
0.00277616
0.000153826
5.55917e-06
1.40799e-07
2.62891e-09
3.77038e-11
4.28763e-13
3.96304e-15
3.05427e-17
2.08057e-19
1.70514e-21
3.58126e-23
1.4836e-24
6.77377e-26
3.0201e-27
1.29476e-28
5.31998e-30
2.09539e-31
7.90579e-33
2.86393e-34
9.95393e-36
3.29921e-37
-3.8307e-35
8.77669e-36
1.08016e-36
7.62435e-38
0.551206
0.192876
0.0487593
0.0096445
0.00157012
0.000216843
2.60674e-05
2.7803e-06
2.66997e-07
2.33552e-08
1.87823e-09
1.39967e-10
9.73058e-12
6.35028e-13
3.91407e-14
2.29143e-15
1.28045e-16
6.85267e-18
3.51716e-19
1.73077e-20
8.16184e-22
3.68582e-23
1.59426e-24
6.60665e-26
2.62508e-27
1.00031e-28
3.65768e-30
1.28357e-31
4.32834e-33
1.40033e-34
0.551275
0.192873
0.0487178
0.00961557
0.00155941
0.000215013
2.58257e-05
2.7523e-06
2.64062e-07
2.30754e-08
1.8542e-09
1.38119e-10
9.60239e-12
6.26999e-13
3.86629e-14
2.26274e-15
1.26203e-16
6.72635e-18
3.43111e-19
1.6762e-20
7.84274e-22
3.5139e-23
1.50825e-24
6.20279e-26
2.44524e-27
9.24558e-29
3.35417e-30
1.16796e-31
3.90847e-33
1.25496e-34
0.551308
0.192862
0.0486906
0.00959993
0.00155415
0.000213788
2.56097e-05
2.72119e-06
2.60221e-07
2.26579e-08
1.81388e-09
1.34553e-10
9.31604e-12
6.05523e-13
3.71541e-14
2.1615e-15
1.19681e-16
6.32493e-18
3.19605e-19
1.54566e-20
7.1568e-22
3.17396e-23
1.34842e-24
5.49006e-26
2.14338e-27
8.02554e-29
2.88398e-30
9.94715e-32
3.29778e-33
1.04976e-34
0.551323
0.192856
0.0486785
0.00959304
0.0015518
0.000213234
2.55119e-05
2.70732e-06
2.58545e-07
2.24809e-08
1.79698e-09
1.33123e-10
9.20154e-12
5.97074e-13
3.65535e-14
2.12106e-15
1.17071e-16
6.16306e-18
3.10051e-19
1.49218e-20
6.87579e-22
3.0341e-23
1.28288e-24
5.19903e-26
2.02016e-27
7.53224e-29
2.69495e-30
9.25764e-32
3.0575e-33
9.69849e-35
0.550458
0.191517
0.0478136
0.00926778
0.00146746
0.000196616
2.28727e-05
2.35573e-06
2.1812e-07
1.83806e-08
1.42404e-09
1.02302e-10
6.86408e-12
4.32848e-13
2.57925e-14
1.45893e-15
7.86265e-17
4.04862e-18
1.99562e-19
9.42666e-21
4.27046e-22
1.85569e-23
7.73616e-25
3.09451e-26
1.18793e-27
4.37775e-29
1.54905e-30
5.26619e-32
1.72247e-33
5.41854e-35
0.550462
0.191522
0.0478177
0.00926996
0.00146822
0.000196804
2.29084e-05
2.3612e-06
2.18814e-07
1.84573e-08
1.43156e-09
1.02966e-10
6.91821e-12
4.36976e-13
2.6091e-14
1.47958e-15
7.99968e-17
4.13533e-18
2.04761e-19
9.72087e-21
4.42677e-22
1.93397e-23
8.10657e-25
3.25972e-26
1.25762e-27
4.65658e-29
1.65507e-30
5.64947e-32
1.8547e-33
5.85447e-35
0.550467
0.191533
0.0478261
0.00927444
0.00146977
0.000197192
2.29821e-05
2.37243e-06
2.20257e-07
1.86182e-08
1.4475e-09
1.04392e-10
7.03534e-12
4.45954e-13
2.67436e-14
1.52494e-15
8.30176e-17
4.32738e-18
2.1633e-19
1.03777e-20
4.77738e-22
2.1103e-23
8.94438e-25
3.63576e-26
1.41744e-27
5.30007e-29
1.90159e-30
6.54856e-32
2.16774e-33
6.89596e-35
0.55048
0.191548
0.047838
0.00928046
0.00147234
0.000197303
2.29626e-05
2.3684e-06
2.19846e-07
1.85909e-08
1.44656e-09
1.04428e-10
7.0458e-12
4.47259e-13
2.68799e-14
1.5382e-15
8.42168e-17
4.42565e-18
2.23522e-19
1.0849e-20
5.05743e-22
2.26288e-23
9.71485e-25
3.99854e-26
1.57692e-27
5.95746e-29
2.1569e-30
7.48718e-32
2.49535e-33
7.98719e-35
0.550502
0.191572
0.0478518
0.00929048
0.00260211
0.000138107
4.72558e-06
1.13122e-07
2.03655e-09
3.12166e-11
5.93591e-13
2.22955e-14
1.23016e-15
7.0625e-17
3.91203e-18
2.07826e-19
1.0612e-20
5.21857e-22
2.47169e-23
1.1266e-24
4.94056e-26
2.0836e-27
8.45625e-29
1.46479e-29
2.9919e-30
2.05724e-31
3.26955e-33
1.73587e-34
7.70109e-36
3.00911e-37
0.550514
0.191584
0.04786
0.00929548
0.00260664
0.000138875
4.77668e-06
1.14795e-07
2.04271e-09
2.81127e-11
3.09308e-13
2.79158e-15
2.11108e-17
1.36387e-19
7.67835e-22
3.84909e-24
1.76077e-26
7.76951e-29
4.63352e-31
8.21263e-33
2.80371e-34
1.02541e-35
3.64841e-37
2.29738e-36
5.59728e-36
1.04546e-36
3.65438e-36
3.20396e-37
1.87421e-38
8.75727e-40
0.550526
0.191587
0.0478602
0.00929685
0.00260912
0.000139476
4.82756e-06
1.17163e-07
2.11394e-09
2.96144e-11
3.32522e-13
3.06397e-15
2.36079e-17
1.54835e-19
8.82479e-22
4.48965e-24
2.10523e-26
9.3156e-29
3.86246e-31
1.46524e-33
5.03732e-36
1.57213e-38
4.4592e-41
1.15773e-42
1.57232e-41
6.52147e-42
5.69132e-39
6.76956e-40
4.8475e-41
2.6018e-42
0.550534
0.191575
0.047845
0.00929084
0.00260797
0.000139724
4.86475e-06
1.1939e-07
2.19326e-09
3.14994e-11
3.64366e-13
3.46205e-15
2.73986e-17
1.82956e-19
1.04947e-21
5.34659e-24
2.56041e-26
1.21525e-28
5.64312e-31
2.42745e-33
9.44126e-36
3.31531e-38
1.04915e-40
2.97113e-43
9.09864e-46
1.15613e-46
1.38569e-41
1.98264e-42
1.62635e-43
9.48469e-45
0.550539
0.19154
0.0478049
0.00927212
0.00260057
0.000139312
4.87063e-06
1.20973e-07
2.27452e-09
3.3848e-11
4.09314e-13
4.0754e-15
3.36093e-17
2.29979e-19
1.30911e-21
6.31775e-24
1.22606e-26
1.37387e-30
4.76107e-33
1.87278e-35
2.44737e-39
6.64064e-43
1.81473e-44
1.70802e-46
8.74092e-49
-2.56498e-50
5.00598e-44
6.72444e-45
5.73924e-46
3.42101e-47
0.550544
0.191469
0.0477271
0.0092333
0.00258277
0.000137678
4.81042e-06
1.20674e-07
2.3339e-09
3.65098e-11
4.71485e-13
5.03501e-15
4.42402e-17
3.15244e-19
1.74619e-21
1.29509e-23
6.01932e-28
1.01675e-37
8.37951e-44
5.91978e-44
8.24123e-50
6.18988e-40
1.69591e-39
3.295e-42
2.94661e-46
-1.68759e-45
6.99294e-40
1.16947e-41
1.673e-43
2.29756e-45
0.55055
0.191351
0.0475955
0.00916544
0.00254902
0.000134015
4.62545e-06
1.16016e-07
2.30872e-09
3.86128e-11
5.48193e-13
6.56163e-15
6.53607e-17
5.26408e-19
3.1275e-21
1.02779e-23
9.09476e-28
1.16606e-40
2.20553e-35
1.33982e-34
8.55645e-37
1.12443e-39
1.07532e-39
2.23068e-36
1.4027e-38
9.19172e-41
5.14424e-43
0.550555
0.191183
0.0474044
0.00906314
0.00249486
0.000127439
4.2368e-06
1.02639e-07
2.02815e-09
3.6582e-11
5.89367e-13
7.08107e-15
5.70667e-17
3.24079e-19
1.49005e-21
4.83615e-24
6.29734e-28
7.03076e-36
2.43788e-30
1.65724e-29
1.44442e-31
2.91164e-34
3.14202e-37
1.45478e-34
1.48155e-36
8.83805e-39
6.97156e-41
0.550579
0.190982
0.0471724
0.00893402
0.00242209
0.000117716
3.58488e-06
1.35572e-07
3.36825e-10
4.50214e-13
1.17249e-16
9.94328e-19
1.2709e-17
6.50458e-14
1.39811e-16
7.13145e-19
3.83813e-24
-4.7467e-33
1.86134e-23
1.61258e-24
9.48677e-27
2.12938e-29
2.64806e-32
1.04319e-31
1.84694e-33
2.14657e-35
2.10162e-37
0.550596
0.190796
0.0469527
0.00880865
0.00234729
0.000106993
2.81329e-06
7.3072e-08
7.7098e-12
3.23266e-08
4.27567e-11
-2.39088e-11
2.59377e-15
6.38517e-17
5.22782e-16
1.37743e-16
-1.80524e-21
6.86449e-18
5.77201e-20
2.25376e-22
4.86746e-25
6.42803e-28
6.69586e-29
1.13301e-30
1.44876e-32
1.8111e-34
0.550608
0.190682
0.0468172
0.00873086
0.00229783
9.96761e-05
2.3314e-06
4.32517e-08
7.42581e-07
0.00125449
0.00179053
0.0308986
4.68339e-05
1.028e-06
2.34376e-08
2.82343e-09
4.35786e-11
2.74865e-13
1.09993e-15
2.99188e-18
5.4794e-21
6.80052e-24
1.04071e-25
1.49119e-27
1.97454e-29
2.46295e-31
0.55061
0.190682
0.0468159
0.00873042
0.00229264
9.83365e-05
2.24422e-06
3.89477e-08
0.0242069
55.0687
1771.52
19016.9
0.942856
0.024741
0.000878298
1.99041e-05
2.52416e-07
1.8634e-09
8.4517e-12
2.40734e-14
4.63724e-17
6.20365e-20
8.23263e-24
1.17374e-25
1.54053e-27
1.89781e-29
0.550596
0.190794
0.0469495
0.00880721
0.00233326
0.000103221
2.52925e-06
5.10627e-08
5.02814e-05
0.00439172
0.000123512
0.00285356
7.44954e-06
6.17625e-08
1.58565e-09
3.08721e-09
3.30181e-11
1.00158e-13
8.64372e-16
4.44302e-18
1.27108e-20
2.17281e-23
2.28041e-26
5.24453e-28
8.8994e-30
1.27774e-31
0.550574
0.190976
0.0471678
0.00893177
0.00240446
0.000112904
3.19804e-06
9.7688e-08
2.67178e-11
1.61671e-20
6.31851e-26
1.25702e-20
9.50772e-10
1.60801e-08
1.1822e-11
-6.93222e-12
1.52231e-15
1.86335e-17
5.91529e-18
4.89531e-18
-1.56722e-23
3.07978e-19
3.9413e-20
4.54565e-22
1.83245e-24
3.60098e-27
8.14868e-29
2.27618e-30
4.3338e-32
6.61027e-34
0.550559
0.191177
0.0473994
0.00906058
0.00247921
0.000123382
3.94371e-06
9.08147e-08
1.60026e-09
2.67924e-11
2.88779e-13
1.08692e-15
3.31262e-17
4.20054e-15
4.32718e-17
1.46302e-19
2.92726e-23
-5.86141e-32
3.39468e-27
7.05072e-25
2.63388e-26
1.47068e-28
3.09614e-31
3.02013e-31
8.39007e-33
1.58162e-34
2.22231e-36
0.55055
0.191348
0.0475903
0.0091629
0.00253757
0.000131221
4.44786e-06
1.10067e-07
2.20046e-09
3.82073e-11
5.87107e-13
7.77204e-15
8.48662e-17
7.4711e-19
4.91582e-21
1.8218e-23
1.9975e-27
8.45447e-39
1.05315e-33
3.57792e-30
6.5457e-31
5.75926e-33
1.27341e-35
7.86938e-34
1.93865e-35
3.22182e-37
3.31817e-39
0.550559
0.191475
0.0477229
0.00923099
0.00257506
0.000135932
4.71382e-06
1.18152e-07
2.31305e-09
3.72563e-11
5.00824e-13
5.57975e-15
5.10315e-17
3.75008e-19
2.0626e-21
1.30045e-23
1.73348e-28
1.40376e-43
3.05636e-39
6.5348e-36
6.67785e-36
9.32709e-38
2.16105e-39
1.53056e-36
1.90515e-38
1.834e-40
1.43951e-42
0.550524
0.191538
0.047802
0.00926975
0.00259571
0.000138245
4.8207e-06
1.20053e-07
2.28258e-09
3.46588e-11
4.30506e-13
4.40825e-15
3.72072e-17
2.57103e-19
1.42906e-21
1.15956e-23
2.30515e-27
5.85889e-34
2.15215e-40
5.02311e-41
-1.72478e-48
5.195e-45
2.43283e-43
2.34585e-41
1.38262e-42
3.42812e-42
6.12216e-38
1.44385e-39
2.23305e-41
3.09288e-43
0.550536
0.191559
0.04784
0.00928899
0.0026045
0.000139081
4.83873e-06
1.19122e-07
2.20648e-09
3.21143e-11
3.77693e-13
3.64922e-15
2.92456e-17
1.95986e-19
1.11124e-21
5.50633e-24
2.53371e-26
1.20225e-28
5.94249e-31
2.49103e-33
7.92986e-36
1.87741e-38
3.34719e-41
4.55417e-44
5.1179e-47
2.36795e-47
7.41543e-42
5.36648e-43
2.60203e-44
1.14738e-45
0.550527
0.191583
0.0478543
0.00929414
0.00260659
0.00013906
4.81298e-06
1.17102e-07
2.12461e-09
3.0008e-11
3.40156e-13
3.16365e-15
2.45373e-17
1.61185e-19
9.14824e-22
4.62401e-24
2.17542e-26
9.88038e-29
4.27306e-31
1.70019e-33
6.12424e-36
1.9903e-38
5.82802e-41
1.53885e-43
3.68232e-46
-5.64633e-48
9.0445e-41
2.11974e-41
2.46052e-42
1.99833e-43
0.550516
0.191581
0.0478565
0.0092935
0.00260494
0.000138596
4.76895e-06
1.1481e-07
2.04988e-09
2.83474e-11
3.13622e-13
2.84406e-15
2.15784e-17
1.39516e-19
7.84811e-22
3.93321e-24
1.80212e-26
7.68991e-29
3.04982e-31
1.10857e-33
3.67068e-36
1.15214e-38
5.0659e-41
7.55924e-43
2.11782e-44
-1.98692e-44
1.41234e-37
2.2175e-38
1.87962e-39
1.21453e-40
0.550503
0.19157
0.0478482
0.0092884
0.00260102
0.000137918
4.71524e-06
1.12498e-07
1.98438e-09
2.7034e-11
2.94036e-13
2.62331e-15
1.97293e-17
1.33538e-19
1.1376e-21
2.51675e-23
1.04359e-24
4.70403e-26
2.07309e-27
8.79368e-29
3.58743e-30
1.4054e-31
5.30014e-33
1.92437e-34
6.71155e-36
2.24701e-37
4.19631e-34
3.60129e-35
2.06406e-36
9.91377e-38
0.550481
0.191545
0.0478343
0.00927846
0.00147163
0.000197134
2.29299e-05
2.36319e-06
2.19124e-07
1.85035e-08
1.43708e-09
1.03512e-10
6.96594e-12
4.40867e-13
2.64088e-14
1.50569e-15
8.21235e-17
4.29864e-18
2.16261e-19
1.04536e-20
4.85392e-22
2.16348e-23
9.26047e-25
3.80686e-26
1.50414e-27
5.7148e-29
2.08851e-30
7.34263e-32
2.48576e-33
8.09911e-35
0.550468
0.19153
0.0478223
0.00927233
0.00146904
0.00019701
2.29466e-05
2.36676e-06
2.19484e-07
1.85261e-08
1.43778e-09
1.03478e-10
6.95603e-12
4.39691e-13
2.62844e-14
1.49371e-15
8.10294e-17
4.20844e-18
2.09613e-19
1.00203e-20
4.59809e-22
2.02561e-23
8.57037e-25
3.48348e-26
1.36095e-27
5.11395e-29
1.84912e-30
6.4352e-32
2.15803e-33
6.96851e-35
0.550462
0.19152
0.0478142
0.00926797
0.00146752
0.000196626