/*--------------------------------*- C++ -*----------------------------------*\
  =========                 |
  \\      /  F ield         | OpenFOAM: The Open Source CFD Toolbox
   \\    /   O peration     | Website:  https://openfoam.org
    \\  /    A nd           | Version:  10
     \\/     M anipulation  |
\*---------------------------------------------------------------------------*/
FoamFile
{
    format      ascii;
    class       surfaceScalarField;
    location    "3";
    object      phi;
}
// * * * * * * * * * * * * * * * * * * * * * * * * * * * * * * * * * * * * * //

dimensions      [0 3 -1 0 0 0 0];

internalField   nonuniform List<scalar> 
293152
(
0.024696
-2.53424e-05
0.000324701
0.0244178
-7.375e-05
0.000432561
0.0241438
-0.000120575
0.00042483
0.0239008
-0.000163922
0.000408973
0.0237024
-0.000196114
0.000397395
0.0235395
-0.000217496
0.000386313
0.0234031
-0.000238982
0.000376866
0.0232933
-0.000263696
0.000371438
0.0232109
-0.000289008
0.000369753
0.0231553
-0.000314322
0.000369857
0.0231254
-0.000340496
0.000370633
0.0231229
-0.000368071
0.000370933
0.0231501
-0.000396138
0.000369533
0.0232081
-0.000421598
0.000364995
0.0232941
-0.000438587
0.000355531
0.0233993
-0.000439059
0.000339554
0.0235087
-0.000415784
0.000315921
0.0236036
-0.000366065
0.00028439
0.0236675
-0.000294548
0.000245933
0.02369
-0.000210065
0.00020249
0.0236673
-0.000120468
0.000156444
0.0235993
-3.1039e-05
0.000110365
0.0234873
5.45866e-05
6.66539e-05
0.023334
0.000132606
2.79127e-05
0.0231411
0.000199344
-3.56e-06
0.0229179
0.000251502
-2.66045e-05
0.0226672
0.000286407
-4.13685e-05
0.0224284
0.000302749
-4.8143e-05
0.0221327
0.000304999
-4.97331e-05
0.000289298
-4.40215e-05
0.024693
-5.22333e-05
0.000326534
0.0244122
-0.000151736
0.00043815
0.0241377
-0.000252342
0.000433606
0.0238974
-0.000342575
0.000420253
0.023703
-0.000394628
0.000408372
0.0235404
-0.000425744
0.000393608
0.0234011
-0.000470159
0.000380716
0.0232881
-0.00052545
0.000374178
0.0232026
-0.000581064
0.000373074
0.0231433
-0.000635622
0.000374758
0.0231089
-0.000690622
0.000377721
0.023102
-0.000748713
0.000380595
0.0231268
-0.000809309
0.000381851
0.0231865
-0.000866653
0.000379774
0.02328
-0.000907629
0.000372283
0.0233981
-0.000913194
0.000357343
0.0235226
-0.00086557
0.000333552
0.0236309
-0.000759071
0.000300555
0.0237037
-0.000605562
0.000259671
0.023731
-0.000425978
0.000213091
0.0237108
-0.000237563
0.000163525
0.0236442
-4.96669e-05
0.000113613
0.0235318
0.00013048
6.59275e-05
0.0233745
0.00029339
2.35084e-05
0.0231731
0.000431567
-1.10753e-05
0.0229377
0.000534808
-3.63772e-05
0.0226729
0.000592259
-5.16235e-05
0.0224224
0.000607989
-5.6221e-05
0.0221206
0.000600512
-5.46473e-05
0.000565421
-4.36749e-05
0.0246899
-8.15179e-05
0.000330733
0.0244035
-0.000238074
0.0004505
0.0241255
-0.000416671
0.000454337
0.0238923
-0.000602778
0.000448406
0.0237077
-0.000663328
0.000436559
0.0235468
-0.000679795
0.000417211
0.023405
-0.000735612
0.000403482
0.0232913
-0.000808612
0.00039948
0.0232051
-0.00088691
0.000400872
0.0231403
-0.00096573
0.000404549
0.0230967
-0.00104829
0.000409742
0.0230794
-0.00113935
0.000415619
0.0230967
-0.00124081
0.000420871
0.0231578
-0.0013459
0.0004235
0.0232659
-0.00143239
0.000420986
0.0234107
-0.00146312
0.000410159
0.0235667
-0.00140231
0.000388595
0.0237003
-0.00123904
0.000355537
0.0237849
-0.000997878
0.000312617
0.0238112
-0.000717898
0.000262732
0.023781
-0.000426323
0.000209114
0.0236981
-0.000137552
0.000154705
0.0235651
0.000140907
0.000102641
0.023386
0.000400717
5.57578e-05
0.023164
0.000627521
1.66383e-05
0.0229081
0.000827469
-1.3232e-05
0.0226219
0.000941527
-3.17562e-05
0.0223553
0.00096047
-3.74338e-05
0.0220289
0.000940156
-3.56418e-05
0.000877118
-2.37324e-05
0.0246777
-0.000109978
0.000338384
0.0243775
-0.00032172
0.000473338
0.0240923
-0.000577923
0.000501539
0.0238763
-0.000839353
0.000506298
0.0237222
-0.000238222
0.000480618
-0.000208933
-0.000243988
-0.000250442
0.0235638
-0.000181287
0.000423972
-0.000176094
-0.00026563
-0.000276291
0.0234117
-0.000195825
0.000391694
-0.000210377
-0.000289916
-0.000294466
0.0232971
-0.000235386
0.000384755
-0.000248183
-0.000307771
-0.000310624
0.0232136
-0.000274251
0.000390854
-0.00028506
-0.000325589
-0.000328673
0.0231487
-0.00030962
0.000403397
-0.000318917
-0.000345107
-0.000349306
0.0230995
-0.000343117
0.000420117
-0.000352376
-0.000367655
-0.000374102
0.0230755
-0.000379151
0.000439772
-0.000389961
-0.00039641
-0.000405453
0.0230956
-0.000421377
0.000460805
-0.00043492
-0.000433186
-0.000445869
0.0231817
-0.000470035
0.000480604
-0.00048438
-0.000477808
-0.000492692
0.0233496
-0.000518048
0.000494948
-0.000527342
-0.000524275
-0.000536898
0.0235907
-0.000547127
0.000498382
-0.000543208
-0.000558071
-0.000562233
0.0238609
-0.000534755
0.000485648
-0.00051057
-0.000560738
-0.000550249
0.024099
-0.000468947
0.000454595
-0.000428488
-0.000520505
-0.000496756
0.0242626
-0.000363931
0.000407581
-0.000317827
-0.000445463
-0.000414683
0.0243443
-0.000244921
0.000348989
-0.000200021
-0.000353162
-0.000320254
0.0243558
-0.000127168
0.000283712
-8.52869e-05
-0.000255694
-0.000221641
0.0243185
-1.56484e-05
0.000214632
2.21175e-05
-0.000157134
-0.000122768
0.0242384
8.71033e-05
0.000145018
0.000119974
-5.85438e-05
-2.45322e-05
0.024094
0.000179989
8.11538e-05
0.00020631
3.81233e-05
6.9962e-05
0.0238953
0.000257552
2.59369e-05
0.000277523
0.000127883
0.000153094
0.0236046
0.000320915
-1.42324e-05
0.000351071
0.000209136
0.000203897
0.0232137
0.00124514
-1.85127e-05
0.0228525
0.00125927
1.44202e-06
0.0224385
0.00122778
2.38561e-05
0.00113652
4.62976e-05
0.024639
-0.00013466
0.000349688
0.0242879
-0.000392717
0.00050504
0.0237041
-0.000680187
0.000613044
0.00488878
-0.000936639
0.00059888
0.00487981
0.00659698
0.00658068
0.0043845
-0.000235814
0.000234742
-0.00434593
0.00434069
-0.000194516
9.36087e-05
-0.00434802
0.00438357
-0.000226837
1.59356e-05
-0.00443389
0.00448641
-0.000278584
3.63478e-06
-0.00453644
0.00458275
-0.000324719
9.63686e-06
-0.00462507
0.00466222
-0.000365006
2.13112e-05
-0.00469445
0.00472225
-0.000401896
3.3279e-05
-0.00474626
0.00476776
-0.000442322
4.43769e-05
-0.00478817
0.00480905
-0.000493059
5.43937e-05
-0.00483199
0.00485962
-0.000556495
6.32935e-05
-0.00489245
0.00493309
-0.000624125
7.03694e-05
-0.0049806
0.0050362
-0.000672304
7.42504e-05
-0.0050949
0.00515649
-0.000665225
7.28627e-05
-0.00521307
0.00526476
-0.000582139
6.47779e-05
-0.00530521
0.00533791
-0.000444777
5.03941e-05
-0.00535932
0.00537473
-0.000290898
3.20241e-05
-0.00538153
0.00538381
-0.000141887
1.28708e-05
-0.00537855
0.00536598
-1.40342e-06
-3.51785e-06
-0.00534122
0.00530507
0.000131162
-1.40582e-05
-0.0052575
0.00520061
0.000250456
-2.1153e-05
-0.00513837
0.00506775
0.000347907
-2.75393e-05
-0.0050323
0.00493005
0.000415563
-3.83378e-05
0.0233824
0.00171675
-0.000145991
-0.00518084
-0.00538369
-0.00653289
-0.00651925
0.0230529
0.00170905
-9.50158e-05
0.0226654
0.00165556
-5.37872e-05
0.00150221
-9.30333e-06
0.0246249
-0.000159343
0.000360078
0.0242535
-0.000465127
0.000536109
0.0236643
-0.000781002
0.000671432
0.00489105
-0.00106274
0.000669092
0.00488208
0.00659409
0.00658661
0.00022097
0.00441012
-0.000233758
0.000255755
0.000243668
-0.00439871
0.00440865
-0.000287425
9.05781e-05
0.000297697
-0.00443176
0.00449056
-0.000354662
6.29855e-06
0.00035295
-0.00456631
0.00464156
-0.000417407
-4.81658e-06
0.000399407
-0.00471256
0.00477786
-0.000467238
2.35571e-06
0.000437165
-0.00483564
0.00488458
-0.000503299
1.6025e-05
0.000471323
-0.00492387
0.00495412
-0.000533479
3.03381e-05
0.000511529
-0.00497578
0.00499018
-0.00057171
4.4463e-05
0.000568196
-0.00499891
0.00500444
-0.000633572
5.88479e-05
0.00064629
-0.00500946
0.00501747
-0.000728912
7.39761e-05
0.000737697
-0.00503264
0.00505861
-0.000852856
8.9067e-05
0.000811741
-0.00509966
0.00515793
-0.000969979
0.000100893
0.000816324
-0.00523376
0.00531977
-0.00100206
0.000102289
0.000716421
-0.00540231
0.00546658
-0.00086523
8.72855e-05
0.000540329
-0.0055036
0.00551326
-0.000616997
6.7106e-05
0.000346793
-0.00550168
0.00547796
-0.000373433
5.00502e-05
0.000168179
-0.00545102
0.00542846
-0.000178365
3.48419e-05
2.71109e-06
-0.00541534
0.00541174
-1.57341e-05
1.86046e-05
-0.000162203
-0.0054147
0.00542032
0.000148518
2.59845e-06
-0.000317073
-0.00542411
0.00542276
0.000321074
-1.32339e-05
-0.000444503
-0.00541477
0.005395
0.000482375
-2.94917e-05
-0.000528027
-0.00538218
0.0053203
0.000604161
-4.90112e-05
0.0222631
0.00178483
-1.28425e-05
-0.0053808
-0.00490745
-0.00635707
-0.00599492
0.0218631
0.00181817
7.53174e-05
0.0214125
0.00179939
0.000134328
0.00165356
0.000191691
0.024613
-0.000187618
0.000370246
0.0242199
-0.00054985
0.000565881
0.0236059
-0.000928099
0.00072189
0.00487637
-0.00128732
0.000736376
0.00486134
0.00657927
0.00656681
0.000259762
0.00439817
-0.00028957
0.000269003
0.000331775
-0.0043877
0.00439512
-0.000380207
0.000100142
0.00041745
-0.00441525
0.00447343
-0.0004852
1.43401e-05
0.000490896
-0.00455062
0.00462762
-0.0005699
5.47159e-06
0.000543347
-0.00469901
0.00476306
-0.000624909
1.54938e-05
0.000575227
-0.00481732
0.00485919
-0.000649999
3.09086e-05
0.000597712
-0.00488758
0.00490183
-0.000660351
4.64123e-05
0.000630333
-0.00490226
0.00488981
-0.000682168
6.25698e-05
0.00069516
-0.00486656
0.0048355
-0.000747111
8.14211e-05
0.000810816
-0.00480103
0.00477007
-0.000886354
0.000104776
0.000981177
-0.00475093
0.00475383
-0.0011189
0.000132847
0.00116939
-0.00478381
0.00482833
-0.00137976
0.000164227
0.00121332
-0.00485055
0.00480657
-0.00135947
0.00021017
0.000961056
-0.00467587
0.00446845
-0.00104591
0.000321842
0.000616847
-0.00421548
0.00395354
-0.000781959
0.000419283
0.000364562
-0.003711
0.00350671
-0.000625185
0.000444683
0.000220555
-0.00335083
0.00324429
-0.000552877
0.000418543
0.000118563
-0.00317606
0.00312622
-0.000465486
0.000378294
-5.4947e-06
-0.00307774
0.00302462
-0.000295447
0.000341276
-0.000163295
-0.00297009
0.00292725
-8.14352e-05
0.000298811
-0.000331822
-0.00291809
0.00295008
9.83183e-05
0.00023647
-0.000494044
-0.00305209
0.00314623
0.000241918
0.000153738
0.0162654
0.00154729
0.000638165
-0.00348135
-0.00315904
-0.00492235
-0.00481579
0.0159747
0.00151916
0.000651594
0.0157207
0.00148177
0.000633043
0.00134494
0.00060752
0.0245976
-0.000218517
0.000381689
0.0241734
-0.000642371
0.000599627
0.0235176
-0.00109756
0.000779286
0.00484872
-0.00155295
0.000814851
0.00482486
0.0065509
0.00653068
0.000322911
0.00436775
-0.000359426
0.000284144
0.000434073
-0.00435097
0.00435247
-0.00049461
0.000116303
0.000560871
-0.00436938
0.00442671
-0.000647184
3.39924e-05
0.000659725
-0.0045049
0.00458428
-0.000763859
2.81289e-05
0.000717248
-0.00465808
0.00472314
-0.000823571
3.99353e-05
0.000731767
-0.00477499
0.00480981
-0.000822601
5.52234e-05
0.000723552
-0.00482505
0.00481979
-0.000788277
6.93617e-05
0.000727686
-0.00479349
0.00474578
-0.000764729
8.44679e-05
0.000787311
-0.00467685
0.00458705
-0.000803092
0.000106019
0.000946634
-0.00447562
0.00434092
-0.000952713
0.000143421
0.00123229
-0.00417598
0.00395511
-0.00122034
0.000215195
0.00151245
-0.00367743
0.0034263
-0.00164068
0.000370161
0.001627
-0.00336965
0.00363152
-0.00261549
0.000665231
0.0016446
-0.00410718
0.00458441
-0.00269442
0.000481015
0.00144547
-0.00495525
0.0052077
-0.00192918
0.000173763
0.00120782
-0.00536852
0.00547282
-0.00132083
-8.45294e-06
0.00104453
-0.00555115
0.00562368
-0.00102248
-0.000103201
0.00084076
-0.00569331
0.00575104
-0.000754726
-0.000148346
0.000533706
-0.00578382
0.00577845
-0.000402515
-0.000133213
0.00019615
-0.00572526
0.00561211
-1.39739e-05
-6.95801e-05
-4.97498e-05
-0.00542684
0.00517155
0.000267473
2.60549e-05
-0.00016118
-0.00490827
0.00457297
0.000358651
8.23721e-05
0.0194144
0.00229319
0.000179557
-0.00457754
-0.00502541
-0.00554409
-0.00563906
0.0183129
0.00203892
0.000364522
0.0172994
0.00183172
0.000450718
0.00150263
0.00050793
0.0245734
-0.000247071
0.000395462
0.0241004
-0.000732071
0.000640704
0.023368
-0.00126889
0.000850541
0.00479722
-0.00184
0.000916257
0.00475953
0.00649678
0.00646409
0.000400482
0.00430839
-0.000443522
0.000304669
0.000563022
-0.0042784
0.00426766
-0.000640068
0.0001422
0.000747385
-0.00427699
0.00433159
-0.000864742
6.81009e-05
0.000887044
-0.00441117
0.00449538
-0.00103522
6.79005e-05
0.000949741
-0.00457723
0.00465154
-0.00110489
8.13952e-05
0.000928502
-0.00471019
0.00474254
-0.00105112
9.08008e-05
0.000855562
-0.00473814
0.00468672
-0.000904505
9.90757e-05
0.000780141
-0.00457923
0.00440793
-0.000733995
0.00012234
0.000758049
-0.00416465
0.00384074
-0.000611536
0.000173445
0.000836638
-0.00342424
0.00290683
-0.000582298
0.000258516
0.00103392
-0.00227545
0.00175878
-0.000921268
0.000372764
0.000576012
0.00219303
-0.00158895
-0.000844997
-0.000757953
-0.00078433
-0.00095119
0.000634257
0.000326251
0.000640345
0.000260407
-0.000489949
0.00119492
0.000704589
-0.0014409
-4.53008e-06
-0.00133327
0.000877869
0.00142192
-0.000769412
-0.000257813
-0.00143811
0.000378823
0.00140737
-0.000182809
-0.00021793
-0.00128178
0.000160747
0.00124166
-7.68763e-07
-0.000150839
-0.00115094
0.000110523
-8.82159e-06
-0.000108186
0.00114132
-0.00437962
0.000331491
0.0044128
-0.00020974
-0.000162136
5.94455e-05
-0.00448085
0.0045612
-5.24034e-05
-7.12912e-05
-0.000319144
-0.00462637
0.00466542
0.000375718
-9.79943e-05
-0.00058032
-0.00467737
0.00466763
0.000698916
-0.000116427
-0.000644531
-0.00462591
0.00458176
0.000790955
-9.54988e-05
0.0156243
0.00229829
0.000420486
-0.00437778
-0.00345627
-0.00465042
-0.00361031
0.0150058
0.00209501
0.000622823
0.0141816
0.00194036
0.000735975
0.00148422
0.000737715
0.024538
-0.000267726
0.000412197
0.0239863
-0.000799225
0.000691254
0.0231251
-0.00141025
0.000940313
0.0047074
-0.00210352
0.00104973
0.00464956
0.00640172
0.00635074
0.000490091
0.00420071
-0.000536586
0.00033358
0.000726992
-0.00414339
0.00410683
-0.000823017
0.000182941
0.00100274
-0.00409702
0.00414088
-0.00116447
0.000123856
0.0012173
-0.00421953
0.00431515
-0.00144217
0.000134231
0.00129429
-0.00440816
0.00446012
-0.00149044
0.000151506
0.00115892
-0.00442842
0.00429247
-0.0012161
0.000209823
0.000883744
-0.00405878
0.0037481
-0.000876438
0.00031591
0.000606819
-0.00338183
0.00297445
-0.000613579
0.000414424
0.000407887
-0.00253345
0.00206621
-0.000410032
0.000472145
0.000344412
-0.00159027
0.00115231
-0.000341763
0.000466726
0.00109204
-0.000893742
0.000790031
-0.00119465
0.000394203
0.000868728
0.00015048
-0.000366477
-0.000837503
9.92763e-05
0.000420263
-8.06295e-06
0.000100543
-0.000408607
-0.000110247
-6.21158e-05
-0.000133987
0.000132423
4.79183e-05
1.81574e-05
-4.13955e-05
-4.23225e-05
3.08617e-05
1.64721e-05
3.85865e-05
-2.85529e-05
9.51247e-06
-1.41845e-05
1.11169e-05
2.40914e-05
-2.05775e-05
1.83579e-05
3.78179e-05
-3.24634e-05
-2.10938e-06
-0.00010724
0.00052569
-0.000255652
-0.000761792
0.000424066
3.22583e-05
-5.9097e-05
0.000113107
0.000429055
0.000330087
-0.000195144
-0.000693754
0.000164416
-5.5495e-05
-7.35185e-05
0.00041273
-0.00030789
8.23525e-05
-0.000504383
-0.000731805
0.000993861
9.0647e-05
0.000158999
-0.000675492
-0.00119871
0.00135724
0.000274985
0.000233399
0.00412684
-0.000271916
0.00133864
-0.00127013
-2.52877e-05
-0.00146831
-0.000221435
0.00472341
1.5875e-05
0.00127755
0.00521084
0.000162586
0.0012195
-1.06833e-05
0.000964883
0.0244874
-0.000271576
0.000431872
0.0238195
-0.000817411
0.000751571
0.0227552
-0.00147068
0.00105018
0.00456066
-0.00225973
0.00122039
0.00447548
0.00624589
0.00617101
0.000583025
0.00401697
-0.000624394
0.000373833
0.000927211
-0.00390542
0.00381316
-0.0010348
0.000245133
0.0013524
-0.00375478
0.00376305
-0.00156547
0.000212501
0.00170413
-0.00380985
0.00384084
-0.00198452
0.000256731
0.00167872
-0.00381874
0.0037755
-0.00208461
0.000448449
0.00143163
-0.00379223
0.00391013
-0.00216911
0.000570383
0.00125552
-0.00410127
0.00430348
-0.00199648
0.000469964
0.00103807
-0.00445872
0.00453268
-0.00152455
0.000346124
0.000739571
-0.0045122
0.00438389
-0.000970033
0.000298336
0.000483836
-0.00411567
0.0036435
-0.000409986
0.000339186
0.000895938
-0.00291479
0.00181111
-0.000212145
0.00047012
0.000458373
0.000317468
-0.000709758
-0.000287838
7.71021e-05
0.000145482
8.92983e-05
-1.74726e-05
-0.000113502
-0.000121731
2.97069e-05
-2.62895e-05
2.60315e-05
-2.18696e-05
-7.39549e-06
0.000304638
0.000747439
-0.00194949
-0.000604133
0.000211337
0.000316142
0.00045431
0.000460486
0.000792624
0.00219867
-0.0023225
-0.000822999
0.00010974
0.000592325
0.00234963
-0.00229349
-0.000793829
0.00010984
0.000373532
0.00216645
-0.00197848
-0.000696685
0.000114528
0.000257809
0.00173886
-0.00145327
-0.000617487
8.48175e-05
-0.00348426
-0.00257286
0.000256436
0.00123905
0.00129619
0.00130015
0.00134542
-0.00176607
-0.00205988
0.000303796
-5.52288e-05
-0.00172363
0.000235488
-0.0014262
-6.07659e-05
0.0244208
-0.000248684
0.00045343
0.0235961
-0.000755981
0.000818728
0.0222425
-0.00138531
0.00117567
0.00434042
-0.00218788
0.00142413
0.00422608
0.00601451
0.00591519
0.000657164
0.00372789
-0.000675501
0.000426923
0.00113969
-0.00351463
0.00331045
-0.00122901
0.000334341
0.00179548
-0.00313427
0.00300428
-0.00201991
0.000351809
0.00235136
-0.00288924
0.0029315
-0.00305252
0.000601332
0.00305324
-0.00340052
0.00424526
-0.00429926
0.000342288
0.00308726
-0.00506606
0.00559162
-0.00319424
-0.000480315
0.00227188
-0.00583553
0.00588853
-0.00159994
-0.000795225
0.00136947
-0.00582641
0.0057021
-0.000535639
-0.000759261
0.000691149
-0.00556099
0.00542225
-4.75331e-05
-0.000572417
-3.4325e-05
-0.00522814
0.00485214
0.00062145
-0.000268634
-0.000775345
-0.00410632
0.00284881
0.00177493
0.000262452
-0.000242727
0.000177664
-0.000654753
0.000417154
0.000142447
-8.14042e-05
9.83677e-05
-2.66613e-05
0.000109061
-0.000118559
-3.54023e-05
-2.363e-05
2.23953e-05
4.27649e-05
-5.82506e-06
0.000263845
0.000388607
-0.00158818
-0.000190788
6.96284e-05
0.000261391
0.00037825
0.000368214
0.000728763
0.00175036
-0.00180909
-0.000584745
-9.57782e-05
0.000828377
0.0018026
-0.00174328
-0.000748952
-0.000144577
0.00081237
0.00164305
-0.00151007
-0.000792881
-0.000162961
0.000741236
0.00134651
-0.00113637
-0.000746111
-0.000195961
-0.00160576
-0.00272853
-0.00131461
0.00087513
0.00064674
0.000830888
0.000505285
-0.000236834
-0.00236951
-0.00120322
0.00133601
-0.00203355
-0.00117666
-0.00153625
-0.00129834
0.0243457
-0.000193549
0.000474522
0.0233369
-0.00059205
0.000885527
0.0216298
-0.00110187
0.00130297
0.00405219
-0.00177608
0.00163979
0.00392413
0.00571578
0.0056071
0.000669706
0.00332664
-0.000637069
0.000489145
0.00128185
-0.00294615
0.00252249
-0.0012692
0.000445063
0.00219146
-0.00205568
0.00159063
-0.00225486
0.000579862
0.000972686
-0.000163012
0.000100098
-0.0010998
0.000170232
-0.000610823
0.00145425
0.000943698
-0.00153505
-0.000313047
-0.00127869
0.000534721
0.00124651
-0.000214429
-0.00037549
-0.00107804
6.65589e-05
0.00102346
0.000131508
-0.000185212
-0.000839911
-0.000114251
0.000767973
0.000193693
-2.17927e-05
-0.000582692
-0.000100094
8.28927e-05
3.74263e-05
0.000568485
-0.000638551
-0.000754787
0.00270531
2.00555e-05
0.000596172
-0.000510529
-0.000803352
-0.00061676
-0.00240517
-0.00254604
0.00194922
0.00247317
0.000651281
-0.00084773
0.000157496
-0.000573438
0.000944362
0.000231521
-0.000287958
9.48036e-05
-2.22946e-05
0.000311915
-0.000108298
-8.66997e-05
-1.60486e-05
1.24355e-05
9.21717e-05
-1.47645e-06
0.000216225
3.74159e-05
-0.00110491
3.93953e-05
1.08826e-05
0.000211282
0.000282656
0.000266521
0.000441315
0.00113759
-0.00111773
-0.000326642
-0.000158202
0.000623424
0.00105724
-0.000967254
-0.000495603
-0.000241645
0.00069673
0.000855276
-0.000724959
-0.000573619
-0.00028003
0.000680582
0.00057878
-0.000404271
-0.000584934
-0.000300933
0.00175672
-0.00203196
-0.00175423
9.39496e-05
-0.000216161
-0.000160291
-0.000545806
0.00259503
-0.00173322
-0.00167851
0.00371992
-0.00147423
-0.00163183
-0.00103624
-0.00171383
0.0242771
-0.000107166
0.000491684
0.0230992
-0.00033078
0.000940585
0.0210549
-0.000620123
0.00140938
0.00375291
-0.00101114
0.0018261
0.00364835
0.00541251
0.00532691
0.000565408
0.00288858
-0.000463248
0.000547877
0.00116651
-0.00229981
0.00157889
-0.000968404
0.000551096
0.00216854
-0.000681171
-0.000480448
-0.00188105
0.000566933
0.0011999
0.00049318
-0.000559664
-0.0010786
-0.000107295
0.000115839
1.34057e-05
-0.000102724
-1.75074e-05
-0.000328541
0.000668467
0.000849623
-0.000637578
0.000117864
-0.000249524
-0.000227619
-0.000129292
-0.00219412
-0.000718982
0.000518051
0.00187418
0.000576286
-0.00106372
0.00021131
-0.000456381
0.000232977
0.00103115
-0.00043576
2.31706e-05
5.01572e-05
0.000436219
-9.19257e-05
-1.5023e-05
8.99085e-05
-0.000105515
1.88342e-05
1.24708e-05
-2.28282e-07
0.000154487
-0.000155492
-6.24797e-06
7.91672e-06
1.19309e-05
0.000134197
-0.000128293
-1.84179e-05
-3.65612e-07
-7.53131e-05
4.42301e-05
-0.0001203
0.000195127
1.8362e-05
-5.48621e-05
-8.11428e-05
-6.78011e-05
3.96357e-05
5.19333e-05
4.84512e-05
4.34646e-05
-4.99562e-05
0.000180296
-3.94427e-05
-3.99673e-05
1.17789e-05
-3.60738e-05
-8.40761e-05
0.00025349
-0.000254055
0.000306215
-0.000212508
-9.59023e-05
0.000392548
-0.000351554
0.000404662
-0.00030356
-0.00015204
0.000457409
-0.000470588
0.000550393
-0.000352072
-0.000195423
0.00048248
-0.000655303
0.000743433
-0.000380147
-0.000219129
0.00599984
-0.000963112
-0.0011547
-0.00101528
-0.00163828
-0.00136325
-0.00187395
0.00601688
-0.000732327
-0.00112824
0.00626091
-0.000569401
-0.00110287
-0.000315107
-0.00119386
0.0242364
-2.9873e-06
0.000501342
0.0229563
-9.31744e-06
0.000971801
0.0207058
-1.49621e-05
0.00147034
0.0035429
-2.06759e-05
0.00193406
0.00350203
0.00520656
0.00517474
0.000326562
0.00257209
-0.000172201
0.000584407
0.000690339
-0.00184555
0.00093325
-0.000360695
0.000622307
0.00137537
0.000353922
-0.0017495
-0.000721668
0.000348717
0.000590068
0.000800052
-0.000830449
-0.000430627
-0.000218042
0.000121148
4.73351e-05
-0.000117502
-5.42038e-05
0.00020338
0.000420374
-0.00170489
-0.000155414
0.000251468
0.000275331
0.000365289
0.000471985
-0.00151047
0.00187029
-0.00188557
0.00101172
0.000629395
-0.00385023
0.00164641
-0.000780074
0.00228365
0.000753157
-0.00128632
-0.000999818
0.00315984
0.00286638
-0.000495417
-0.00114982
-0.00113345
-0.00108764
-0.000408352
-0.00473647
0.00543902
0.00134082
-0.000570512
-0.000294464
-0.000372368
-0.000255389
8.52218e-06
-0.00555484
0.0053945
0.000303636
-0.000265121
3.26451e-05
1.21303e-05
2.84512e-05
0.00010906
-0.0051248
0.00483288
-4.78557e-05
-8.48227e-05
8.24416e-05
0.000109233
8.97449e-05
3.7806e-05
-0.00459022
0.00441053
-2.12868e-05
4.73758e-05
4.11311e-05
3.62206e-05
3.79997e-05
0.000126756
-0.0042628
0.00409813
-2.87958e-05
5.88079e-05
0.000170455
-0.0039237
0.0037457
-3.34556e-05
3.40918e-05
0.000205726
-0.00356911
0.00339524
-3.63252e-05
1.40944e-06
0.000234505
-0.00322746
0.00306884
-4.97897e-05
-3.07084e-05
0.000258445
-0.00293336
0.00279164
-7.21087e-05
-5.71717e-05
0.0107482
0.000640276
-0.000343304
-0.00275201
-0.00321321
-0.00282463
-0.00317813
0.00969547
0.000674964
-0.000378325
0.00885262
0.000646127
-0.000395151
0.000550886
-0.000523159
0.0242367
0.000101271
0.000501397
0.0229554
0.000313311
0.000971835
0.0207046
0.000590543
0.00147034
0.00350192
0.000970191
0.001934
0.00354222
0.00517443
0.00520588
5.11799e-06
0.00249668
0.000161852
0.000590293
7.12321e-06
-0.00174574
0.000790304
0.00034628
0.000638169
8.44608e-06
0.000574519
-0.00197657
0.000704612
0.00029568
1.45117e-06
0.000844522
-0.000855964
0.000135832
-0.000235811
-9.38237e-07
5.00175e-05
2.22413e-05
-8.42012e-05
0.000505281
-7.55492e-07
-0.00329661
0.000161969
0.00041973
0.000475723
0.000798916
0.000760308
-8.20111e-06
0.00354412
-0.00324114
-0.000982848
0.000651741
3.63333e-05
0.00242298
-0.00114335
-0.00233353
0.000818472
8.29224e-05
-0.000575374
0.00255261
-0.00298717
0.000456752
8.66306e-05
-0.00428696
0.00540635
-0.00144404
0.000177092
8.47634e-05
-0.00589766
0.00598082
-0.000401922
0.0001443
7.6055e-05
-0.00585679
0.00565556
-4.67199e-05
0.000148757
6.26764e-05
-0.00546277
0.00531036
-7.33715e-05
0.000147146
2.46146e-05
-0.00517994
0.00504434
-6.17797e-06
0.000119509
-4.7008e-05
-0.0048935
0.00472851
0.000128313
7.87949e-05
-0.00011112
-0.00455176
0.00436605
0.000255803
3.68028e-05
-0.000140553
-0.00417358
0.00397613
0.000330995
2.28578e-06
-0.000144201
-0.00376692
0.00356694
0.000364542
-1.60388e-05
0.0106546
0.0022398
-0.000250711
-0.00326047
-0.00283322
-0.0031377
-0.0027312
0.00949641
0.00206459
-0.000271405
0.00853643
0.00183807
-0.000266908
0.00134708
-0.000389024
0.0242766
0.00018765
0.00049177
0.0230979
0.000575262
0.000940728
0.0210524
0.00107324
0.00140954
0.00364764
0.00173663
0.0018261
0.00375151
0.00532609
0.00541103
-0.000316275
0.0026957
0.00045306
0.000566371
-0.000675778
-0.00202715
0.00120129
0.00095391
0.000592551
-0.00135802
-6.78982e-05
-0.00128508
0.00186313
0.000444262
-0.000586975
0.000749287
-0.000807669
0.00075094
-0.00020515
-0.0001197
4.42549e-05
0.000120789
-4.71851e-05
4.30673e-08
-0.000444147
-0.000241734
0.000668114
1.62232e-05
-8.47945e-05
0.000133965
4.28524e-05
0.00146331
0.000238466
-0.000355687
-0.00182059
0.000480017
0.000795125
0.00386796
0.00071535
-0.00136429
-0.00103258
-0.00127369
-0.00128478
2.45644e-05
-0.000322993
-4.20478e-06
-0.000331845
-0.000104484
0.0013011
0.000489672
-0.00151455
-0.000241295
-0.00113605
0.000413076
0.00112242
-0.000330696
-0.000102927
-0.00094068
-3.12021e-06
0.000881406
5.46639e-05
-5.92697e-06
-0.000652987
-0.000103442
0.00057916
0.000143439
3.54822e-05
-0.000434477
-2.2904e-05
-2.09671e-05
4.88304e-05
0.000433946
-0.0015191
-5.30679e-05
0.0016435
-0.000141426
7.40998e-05
-0.000220913
-0.00176633
0.00187907
0.000156925
-4.06335e-05
-0.0004018
-0.00196561
0.00202152
0.000444174
-9.72913e-05
-0.000516611
-0.00204872
0.00204845
0.000625035
-0.000111147
-0.000566398
-0.00202284
0.00198719
0.000703864
-0.00010128
0.00603145
0.0032328
-0.000774619
-0.00182814
-0.00121261
-0.00180363
-0.00129442
0.00577941
0.00296647
-0.000740386
0.00571825
0.00262398
-0.000685484
0.00184586
-0.000820254
0.024345
0.000243411
0.000474649
0.0233347
0.000740321
0.000885831
0.0216251
0.00135888
0.00130338
0.00392248
0.00215078
0.00164007
0.00405016
0.00560523
0.00571352
-0.000555503
0.00308944
0.000627344
0.000514806
-0.00115243
-0.00261049
0.00203857
0.00125564
0.000498961
-0.00215014
-0.00138115
0.000611162
0.00223674
0.000632594
-0.00119601
0.000277242
-0.000394523
-3.69494e-05
0.00125284
-0.000262614
8.6347e-05
0.000330034
-5.58305e-05
-2.13228e-05
1.91834e-05
-3.80797e-05
3.6961e-05
3.35351e-05
-4.27717e-05
-7.68043e-06
2.06313e-05
8.96808e-05
-8.82945e-05
-1.12643e-05
8.83212e-06
-0.000114008
3.00839e-05
1.34157e-05
7.24653e-05
-1.54549e-05
-0.000443686
-0.000680447
0.00177854
-1.33117e-05
0.000520603
-0.000382859
-0.000478795
-0.000487065
0.00215095
-0.0016129
0.00127592
-0.00244848
0.000704301
0.0010567
0.000157011
-0.000476854
-0.00104632
0.000236254
0.000435851
4.48439e-05
3.56672e-05
-0.000425563
-9.58683e-05
1.39164e-05
9.67848e-05
-0.000113075
-7.18201e-06
9.10076e-06
8.89343e-07
0.000164142
-0.000162414
-3.07086e-06
5.70868e-07
-1.56605e-05
9.94986e-05
-8.484e-05
9.05356e-06
-7.03735e-06
3.93281e-05
8.63416e-05
-2.75775e-05
-9.95645e-05
3.21498e-06
0.000117633
0.000315235
-0.000520749
-0.00035293
7.00817e-06
0.000134002
0.000133958
0.000169277
-0.000127452
0.000447589
-0.000356465
0.000174379
-0.000141437
-0.00047662
0.000243663
-0.000118468
0.000534665
-0.000197057
-0.00069785
-8.17721e-06
0.000123392
0.000764429
-0.00019871
-0.000795877
-0.000230513
0.000308474
0.000860092
-0.000170989
0.00154193
0.00381215
-0.00124198
-0.000330423
3.78263e-05
-0.000467393
-0.000112531
0.00202002
0.00352805
-0.00123944
0.00295747
0.00307929
-0.00125014
0.0021427
-0.00157847
0.0244199
0.000266548
0.000453614
0.023593
0.000803435
0.000819177
0.0222365
0.00144652
0.0011764
0.00422364
0.00222658
0.0014249
0.00433763
0.00591242
0.0060113
-0.000660534
0.0035224
0.000666661
0.000452243
-0.00126911
-0.00323916
0.00294972
0.00121709
0.00038699
-0.00217449
-0.00265463
0.0023896
0.00200433
0.000458277
-0.000967243
-0.00220427
0.00243012
0.00302677
0.000696813
-0.00118875
-0.000994795
-0.00103822
-0.00145007
-0.00342526
0.00471476
0.00430076
-0.000568917
-0.00126637
-0.00117875
-0.00111637
-0.000531041
-0.00548006
0.00563493
0.00318937
-0.00146875
-0.000410777
-0.000548816
-0.00042955
-6.42885e-05
-0.0054823
0.00522198
0.00159072
-0.00125235
-3.10749e-05
-7.21666e-05
-3.73571e-05
0.000116595
-0.00492726
0.00463688
0.0005241
-0.000817583
0.000121429
0.000110929
0.000118577
0.000100708
-0.00441613
0.00433942
4.23289e-05
-0.000429771
0.000104105
8.24934e-05
8.54951e-05
0.000745744
-0.00431525
0.00414113
-0.000622954
8.44795e-06
0.00239534
-0.0036036
0.0025869
-0.00177738
0.000465776
0.000845619
0.000112058
-0.000569084
-0.000726591
0.000217739
0.000287775
9.75312e-05
-2.45459e-05
-0.000263852
-0.00010931
9.48422e-05
-1.63786e-05
1.47313e-05
-9.0547e-05
-2.70442e-06
0.00020248
0.000329644
-0.00122222
-0.000256398
0.000134415
0.000204805
0.000283186
0.000292109
-0.000228338
0.00131696
-0.00131646
0.000274337
-6.72654e-05
-0.000597717
0.00126197
-0.001174
0.000645272
-0.000153762
-0.000827428
0.00106763
-0.000952908
0.00087266
-0.000176334
-0.000902738
0.000832279
-0.000698801
0.000927833
-0.000173907
-0.00175695
0.00401432
-0.00135212
0.00060863
0.000818247
0.000518645
0.000794795
-0.000681174
0.00374554
-0.00150541
0.00103681
0.00318891
-0.00168915
0.00227689
-0.00218961
0.0244861
0.000263465
0.000432102
0.0238161
0.000786601
0.00075223
0.0227476
0.00138931
0.00105128
0.00447256
0.00207394
0.00122182
0.00455736
0.0061677
0.00624236
-0.000648926
0.00386787
0.000616695
0.000394758
-0.00112853
-0.00371788
0.00358319
0.00102448
0.000285427
-0.00178116
-0.00348021
0.00344093
0.00155243
0.000272854
-0.0023298
-0.00341653
0.0033887
0.0019678
0.000399517
-0.00305501
-0.00346826
0.00378103
0.00207562
0.00060622
-0.00309226
-0.00428172
0.00480686
0.00217447
0.000306166
-0.00226949
-0.00524156
0.00553284
0.00200239
-5.61361e-05
-0.00136071
-0.0056737
0.00569518