/*--------------------------------*- C++ -*----------------------------------*\
  =========                 |
  \\      /  F ield         | OpenFOAM: The Open Source CFD Toolbox
   \\    /   O peration     | Website:  https://openfoam.org
    \\  /    A nd           | Version:  10
     \\/     M anipulation  |
\*---------------------------------------------------------------------------*/
FoamFile
{
    format      ascii;
    class       volScalarField;
    location    "2";
    object      T;
}
// * * * * * * * * * * * * * * * * * * * * * * * * * * * * * * * * * * * * * //

dimensions      [0 0 0 1 0 0 0];

internalField   nonuniform List<scalar> 
96305
(
0.329751
0.0610128
0.00772306
0.000737093
5.62396e-05
3.56874e-06
1.93705e-07
9.18303e-09
3.86493e-10
1.46345e-11
5.0404e-13
1.59379e-14
4.66412e-16
1.27228e-17
3.25567e-19
7.85903e-21
1.79803e-22
3.91281e-24
8.11908e-26
1.60868e-27
3.04612e-29
5.51382e-31
9.54255e-33
1.57907e-34
2.49868e-36
3.78445e-38
5.4855e-40
7.60949e-42
1.01193e-43
1.28744e-45
0.329756
0.061008
0.00772085
0.000736697
5.61987e-05
3.56603e-06
1.93562e-07
9.17536e-09
3.86087e-10
1.46141e-11
5.03095e-13
1.58972e-14
4.64826e-16
1.26673e-17
3.23855e-19
7.81316e-21
1.78745e-22
3.89202e-24
8.08499e-26
1.60433e-27
3.0431e-29
5.51835e-31
9.56822e-33
1.58642e-34
2.51535e-36
3.81655e-38
5.54142e-40
7.69514e-42
1.0238e-43
1.30222e-45
0.329761
0.0610011
0.00771785
0.000736162
5.61496e-05
3.56358e-06
1.93476e-07
9.1723e-09
3.85986e-10
1.46111e-11
5.02907e-13
1.58828e-14
4.63963e-16
1.26282e-17
3.22483e-19
7.77587e-21
1.77998e-22
3.88312e-24
8.09046e-26
1.61099e-27
3.06637e-29
5.57736e-31
9.69345e-33
1.60959e-34
2.55264e-36
3.86784e-38
5.60431e-40
7.76041e-42
1.02855e-43
1.30114e-45
0.329768
0.0609732
0.00770552
0.000733793
5.59262e-05
3.54515e-06
1.92273e-07
9.10333e-09
3.82616e-10
1.44687e-11
4.97534e-13
1.56954e-14
4.57858e-16
1.24466e-17
3.17794e-19
7.68148e-21
1.76999e-22
3.90618e-24
8.27082e-26
1.67967e-27
3.26877e-29
6.09112e-31
1.08673e-32
1.85637e-34
3.03368e-36
4.74256e-38
7.07325e-40
1.00205e-41
1.35296e-43
1.73835e-45
0.329826
0.0608979
0.00767355
0.000720439
8.68724e-05
6.28831e-07
2.73991e-09
8.98834e-12
5.11418e-14
1.11284e-15
3.20256e-17
8.62432e-19
2.12681e-20
4.79134e-22
9.77623e-24
1.76088e-25
2.59056e-27
2.28144e-29
-2.88086e-31
-2.26005e-32
-7.96786e-34
-2.23035e-35
7.04174e-36
3.77188e-37
9.50041e-39
1.86239e-40
1.00241e-42
2.1337e-44
3.77487e-46
5.84939e-48
0.329833
0.060864
0.00765767
0.000717631
8.6512e-05
6.36436e-07
2.84514e-09
8.90234e-12
2.12361e-14
4.02523e-17
6.21653e-20
7.94325e-23
8.50263e-26
7.63971e-29
2.58063e-32
1.08702e-27
-4.65379e-28
-2.50229e-29
-4.41895e-31
-1.31513e-33
-1.67187e-36
-1.16594e-39
4.47791e-42
1.38848e-42
7.37975e-44
2.09678e-45
1.01878e-45
3.38749e-47
7.58495e-49
1.35001e-50
0.329842
0.0608401
0.00764541
0.000714878
8.59366e-05
6.28858e-07
2.79227e-09
8.66295e-12
2.05254e-14
3.86259e-17
5.89142e-20
7.34851e-23
7.53382e-26
6.40626e-29
-6.18905e-29
2.00166e-23
-9.95455e-24
-8.51416e-25
-2.15508e-26
-9.00894e-29
-1.99222e-31
-2.85627e-34
-2.18626e-37
-6.84697e-41
-9.42285e-45
-1.27647e-48
7.88757e-46
2.74135e-47
5.75393e-49
9.49707e-51
0.329847
0.0608063
0.00762757
0.000710681
8.49745e-05
6.12761e-07
2.66727e-09
8.10508e-12
1.88451e-14
3.48307e-17
5.19088e-20
6.23673e-23
5.99851e-26
4.57049e-29
-4.23707e-25
1.62532e-19
-1.00225e-19
-1.26559e-20
-3.76187e-22
-1.83173e-24
-5.02768e-27
-9.33619e-30
-1.15316e-32
-8.75653e-36
-4.59068e-39
-1.78203e-42
-7.54123e-42
-5.96982e-44
-2.90102e-46
1.45281e-48
0.329856
0.0607537
0.00759964
0.000703834
8.33272e-05
5.8369e-07
2.44069e-09
7.1051e-12
1.58987e-14
2.84958e-17
4.10763e-20
4.59479e-23
3.70024e-26
9.41311e-30
-1.32025e-21
5.9095e-16
-3.4423e-17
-2.71247e-19
-5.8475e-21
-4.67089e-24
-1.05391e-28
-1.11394e-30
-6.16251e-34
-2.26898e-36
-4.68471e-39
-4.56895e-42
-6.65653e-44
-4.99156e-46
-2.73108e-48
-9.90313e-52
0.329858
0.0606739
0.00755653
0.00069298
8.06241e-05
5.34823e-07
2.06559e-09
5.49901e-12
1.13471e-14
1.82914e-17
2.05687e-20
1.40094e-23
5.19169e-27
-6.29213e-27
-1.39728e-18
3.52069e-14
-9.5601e-14
-4.60131e-22
-2.57476e-27
-7.58098e-32
-3.58961e-37
6.03378e-40
-2.5124e-43
-9.76644e-43
-3.53495e-44
-6.45642e-47
-6.95964e-47
-5.26604e-49
-1.67529e-51
2.42551e-53
0.329859
0.0605588
0.00749354
0.000676838
7.64883e-05
4.59747e-07
1.51704e-09
3.31644e-12
5.27408e-15
6.20217e-18
6.55506e-21
7.18077e-24
7.55506e-27
7.44057e-24
1.94105e-16
9.26481e-11
-2.8542e-10
8.07223e-59
2.54112e-49
-1.01825e-52
-3.79212e-52
-2.38981e-52
-2.24755e-54
1.58281e-51
6.27461e-53
1.47963e-54
1.9186e-55
0.329861
0.060407
0.00740967
0.000654984
7.07253e-05
3.58118e-07
8.62836e-10
1.14587e-12
1.24815e-15
5.94823e-18
3.78312e-20
1.30105e-22
2.6893e-25
-4.04594e-25
2.01267e-18
1.29425e-13
1.74168e-13
-9.98769e-69
3.14179e-56
3.9756e-54
3.22945e-56
3.35869e-59
5.34334e-56
6.06591e-51
2.89603e-52
7.44282e-54
1.7379e-55
0.32986
0.0602348
0.00731289
0.000629481
6.37968e-05
2.44671e-07
2.98591e-10
9.2455e-14
2.68247e-18
-1.1565e-21
-4.07907e-24
9.13999e-25
1.01137e-27
5.16481e-29
-4.11442e-21
1.1703e-16
3.89923e-16
-2.66507e-64
3.80839e-51
3.69483e-49
1.81735e-51
1.55856e-54
5.06622e-58
1.0986e-52
1.49219e-54
2.48351e-56
5.7875e-58
0.329865
0.0600783
0.00722434
0.000606023
5.72007e-05
1.50951e-07
3.91333e-11
3.16625e-16
-2.02226e-40
-5.18677e-27
-5.76922e-23
6.01467e-20
1.95618e-20
5.66494e-33
1.22938e-40
6.01779e-42
-1.4094e-47
4.25672e-43
7.69421e-45
2.16477e-47
2.10652e-50
9.42944e-54
2.92445e-50
2.99676e-52
2.03222e-54
1.23617e-56
0.329861
0.0599829
0.00717075
0.000591878
5.2953e-05
1.01012e-07
2.7184e-13
1.06883e-15
-1.27929e-36
-2.75109e-27
-6.26725e-24
4.32521e-23
2.17713e-22
6.41301e-25
8.62878e-28
6.68326e-31
3.28742e-34
1.20862e-37
3.37265e-41
7.04119e-45
2.83589e-48
4.0403e-51
1.02889e-48
1.59185e-50
1.44946e-52
1.14421e-54
0.329861
0.0599835
0.00717074
0.000591854
5.23942e-05
9.20118e-08
2.31741e-13
8.50294e-16
-2.64669e-38
-7.57901e-32
-3.32977e-29
1.42494e-29
1.15854e-28
4.65318e-31
1.01067e-33
1.30094e-36
1.0834e-39
6.5753e-43
6.02087e-46
5.01461e-49
2.18444e-52
1.01219e-55
1.66416e-51
2.86029e-53
2.72558e-55
2.2625e-57
0.329863
0.0600767
0.00722379
0.000605902
5.57227e-05
1.21765e-07
2.75265e-12
1.47865e-15
-5.88395e-44
-2.27008e-36
1.72914e-38
4.84077e-37
-1.28958e-36
-1.1883e-36
-1.56722e-39
1.20413e-41
9.48756e-46
1.08658e-49
5.94699e-50
7.00223e-52
1.10026e-54
6.12261e-58
1.14043e-53
1.68506e-55
1.42636e-57
1.05574e-59
0.329861
0.0602335
0.00731214
0.000629291
6.1913e-05
1.96788e-07
1.31885e-10
-1.2118e-15
2.89553e-21
1.09129e-28
-3.08499e-33
1.01663e-34
1.29075e-41
3.62092e-35
7.63826e-36
-6.14012e-41
-1.26984e-49
8.60772e-55
-1.95008e-53
6.07303e-53
-6.84008e-60
-3.57423e-55
2.60253e-53
2.54201e-55
3.15079e-58
1.29291e-61
5.27477e-56
7.0471e-58
5.78026e-60
4.35192e-62
0.329859
0.060405
0.00740855
0.000654723
6.89711e-05
3.05734e-07
5.58733e-10
4.50643e-13
1.10021e-15
1.25877e-17
5.22409e-20
9.54387e-23
9.28993e-26
6.20964e-29
2.94087e-32
-7.89301e-38
2.99854e-45
1.22816e-74
1.94672e-63
8.85854e-59
6.54171e-60
1.38579e-62
4.24478e-64
1.67627e-58
2.10735e-60
1.63812e-62
1.11418e-64
0.32986
0.060556
0.00749234
0.000676526
7.51248e-05
4.1547e-07
1.19764e-09
2.15001e-12
2.73529e-15
3.71212e-18
7.99133e-21
3.15469e-23
7.96359e-26
1.01562e-28
5.66619e-32
-2.1834e-36
1.33951e-43
4.62378e-82
4.0005e-69
9.96709e-65
5.16526e-65
2.26161e-67
1.4004e-65
3.84533e-61
4.60111e-63
3.14213e-65
1.58918e-67
0.329855
0.0606691
0.00755452
0.000692601
7.96401e-05
5.02277e-07
1.80729e-09
4.42571e-12
8.26115e-15
1.11212e-17
9.89913e-21
6.16733e-24
2.99198e-27
1.19098e-30
3.82105e-34
-3.70974e-37
1.71955e-44
-1.58325e-80
-4.41191e-66
1.48168e-70
1.74114e-70
4.16439e-72
5.49921e-68
5.92215e-64
7.01642e-66
1.31868e-67
1.73717e-68
0.329883
0.0607571
0.00759909
0.00070355
8.26501e-05
5.61499e-07
2.25911e-09
6.30379e-12
1.35709e-14
2.34415e-17
3.13007e-20
2.91711e-23
1.64309e-26
4.63834e-30
6.61628e-34
-6.53917e-37
1.12733e-42
1.05472e-51
4.00926e-55
-3.94356e-59
-1.70735e-60
-2.53849e-60
1.90034e-64
3.01694e-68
-1.46756e-70
-5.03755e-66
9.46289e-63
5.46764e-64
1.63158e-63
3.6948e-64
0.329823
0.0608044
0.00762639
0.000710316
8.45126e-05
5.98045e-07
2.5466e-09
7.55806e-12
1.71798e-14
3.10668e-17
4.52043e-20
5.24769e-23
4.7299e-26
3.13305e-29
1.37792e-32
3.70213e-36
1.32028e-39
3.06525e-41
9.49044e-44
1.17537e-46
9.16719e-50
5.08209e-53
1.97768e-56
5.12391e-60
8.28967e-64
-3.77831e-63
1.73638e-57
1.00465e-58
3.08883e-58
7.21538e-59
0.329842
0.0608327
0.00764346
0.000714513
8.56028e-05
6.18772e-07
2.71055e-09
8.29019e-12
1.93546e-14
3.58501e-17
5.35889e-20
6.48648e-23
6.35712e-26
5.05988e-29
3.33341e-32
1.88455e-35
9.26547e-39
4.30116e-42
2.27055e-45
1.36283e-48
8.51686e-52
4.95763e-55
1.85772e-58
-4.85998e-59
7.84641e-59
-6.78238e-58
3.11157e-52
1.58865e-53
6.88034e-54
4.09985e-55
0.329834
0.0608622
0.00765633
0.000717238
8.6282e-05
6.30692e-07
2.80118e-09
8.68788e-12
2.0546e-14
3.85452e-17
5.86581e-20
7.33176e-23
7.59739e-26
6.60618e-29
4.93591e-32
3.30741e-35
1.9997e-38
-1.34675e-41
-5.28897e-43
-1.00085e-44
-1.77426e-46
-3.11277e-48
-1.00893e-49
-3.35744e-50
1.3429e-49
2.23704e-50
5.46358e-47
2.26576e-48
6.25695e-50
1.44115e-51
0.329827
0.0608954
0.0076722
0.000720087
8.65574e-05
6.30303e-07
2.79114e-09
8.63248e-12
2.03131e-14
3.79569e-17
5.87145e-20
9.13619e-23
2.9306e-25
-1.44005e-27
-1.95111e-28
-8.12478e-30
-2.57917e-31
-7.06894e-33
-1.78859e-34
-4.18091e-36
-9.22565e-38
-1.9448e-39
-3.92801e-41
8.78025e-43
1.18814e-42
5.89653e-44
2.14869e-43
5.20986e-45
1.03002e-46
1.81209e-48
0.329769
0.0609707
0.00770418
0.000733446
5.58691e-05
3.53855e-06
1.91673e-07
9.05886e-09
3.79842e-10
1.43189e-11
4.90422e-13
1.53952e-14
4.46353e-16
1.20472e-17
3.05038e-19
7.30408e-21
1.66525e-22
3.6325e-24
7.59277e-26
1.5195e-27
2.90756e-29
5.31632e-31
9.28885e-33
1.55236e-34
2.48546e-36
3.81829e-38
5.6212e-40
7.91194e-42
1.06701e-43
1.37687e-45
0.329761
0.0609989
0.00771646
0.000735804
5.60907e-05
3.55666e-06
1.92844e-07
9.12514e-09
3.83042e-10
1.44522e-11
4.95379e-13
1.55655e-14
4.51917e-16
1.22095e-17
3.09098e-19
7.37915e-21
1.67035e-22
3.59834e-24
7.39225e-26
1.44916e-27
2.71071e-29
4.83856e-31
8.24552e-33
1.34296e-34
2.09207e-36
3.12107e-38
4.46301e-40
6.12322e-42
8.075e-44
1.0228e-45
0.329757
0.0610058
0.00771962
0.000736355
5.61415e-05
3.55922e-06
1.9294e-07
9.12899e-09
3.83193e-10
1.44583e-11
4.95774e-13
1.55873e-14
4.53048e-16
1.22593e-17
3.10882e-19
7.42939e-21
1.68167e-22
3.61845e-24
7.41849e-26
1.45112e-27
2.71001e-29
4.83435e-31
8.24377e-33
1.34512e-34
2.10246e-36
3.15035e-38
4.53059e-40
6.25578e-42
8.30757e-44
1.06133e-45
0.329751
0.0610105
0.00772173
0.000736742
5.61815e-05
3.56187e-06
1.93082e-07
9.13676e-09
3.83619e-10
1.44803e-11
4.96779e-13
1.56344e-14
4.54891e-16
1.23255e-17
3.12926e-19
7.48725e-21
1.6959e-22
3.65003e-24
7.48313e-26
1.46362e-27
2.73376e-29
4.87961e-31
8.32996e-33
1.36125e-34
2.13118e-36
3.20071e-38
4.61345e-40
6.38711e-42
8.51161e-44
1.09162e-45
0.329934
0.0621826
0.00818327
0.000829673
6.86229e-05
4.80707e-06
2.9281e-07
1.58135e-08
7.68706e-10
3.4043e-11
1.38712e-12
5.24318e-14
1.85147e-15
6.14461e-17
1.92666e-18
5.73288e-20
1.62459e-21
4.39624e-23
1.13802e-24
2.82074e-26
6.69817e-28
1.52385e-29
3.32139e-31
6.93546e-33
1.38748e-34
2.66034e-36
4.88949e-38
8.61935e-40
1.45965e-41
2.37197e-43
0.329929
0.0621867
0.00818587
0.00083037
6.87385e-05
4.82061e-06
2.94008e-07
1.58995e-08
7.73952e-10
3.43244e-11
1.40065e-12
5.30265e-14
1.87563e-15
6.23674e-17
1.96e-18
5.84837e-20
1.66307e-21
4.51916e-23
1.17544e-24
2.92869e-26
6.99265e-28
1.59965e-29
3.50584e-31
7.35957e-33
1.47966e-34
2.85e-36
5.26079e-38
9.30927e-40
1.58187e-41
2.57839e-43
0.329918
0.0621954
0.00819175
0.000831925
6.8996e-05
4.85054e-06
2.96659e-07
1.60925e-08
7.86035e-10
3.49918e-11
1.43362e-12
5.45037e-14
1.93642e-15
6.46998e-17
2.0444e-18
6.1397e-20
1.75946e-21
4.82461e-23
1.26774e-24
3.19338e-26
7.71168e-28
1.78445e-29
3.95583e-31
8.39671e-33
1.70631e-34
3.31878e-36
6.1816e-38
1.10295e-39
1.88812e-41
3.09787e-43
0.329895
0.062207
0.00820149
0.000834886
6.95038e-05
4.89925e-06
3.00414e-07
1.63383e-08
8.00139e-10
3.57105e-11
1.46652e-12
5.58606e-14
1.9874e-15
6.64689e-17
2.10258e-18
6.32618e-20
1.81913e-21
5.01537e-23
1.32742e-24
3.3721e-26
8.21714e-28
1.91924e-29
4.29452e-31
9.199e-33
1.88503e-34
3.69298e-36
6.91826e-38
1.24008e-39
2.13088e-41
3.50894e-43
0.329873
0.0622125
0.00821211
0.000839251
0.000130831
2.04496e-06
2.01976e-08
1.38904e-10
7.60151e-13
5.64378e-15
1.17695e-16
3.72243e-18
1.17598e-19
3.53379e-21
1.01106e-22
2.7689e-24
7.21388e-26
1.79155e-27
4.30546e-29
9.96214e-31
2.20897e-32
4.71023e-34
9.67335e-36
1.90453e-37
7.42864e-38
4.88677e-39
4.51038e-41
1.29798e-42
3.04742e-44
6.23101e-46
0.329843
0.062225
0.00822273
0.00084234
0.000131796
2.07624e-06
2.06444e-08
1.41514e-10
7.09954e-13
2.72805e-15
8.3031e-18
2.05328e-20
4.21192e-23
7.30692e-26
9.46996e-26
1.18559e-22
-1.26397e-23
-7.37191e-25
-9.81948e-27
-4.7326e-29
-1.27263e-31
-2.26814e-34
-2.84467e-37
-2.55722e-40
-1.59213e-43
3.23202e-45
2.82978e-44
1.18556e-45
3.51493e-47
8.41515e-49
0.329819
0.062236
0.00823039
0.000844328
0.000132381
2.09841e-06
2.10494e-08
1.45923e-10
7.42327e-13
2.89893e-15
8.97268e-18
2.25175e-20
4.66315e-23
8.10696e-26
9.07629e-22
7.60207e-19
-3.19832e-19
-1.56183e-20
-1.74178e-22
-6.67615e-25
-1.53429e-27
-2.49504e-30
-2.91856e-33
-2.71017e-36
-2.06734e-39
-1.27035e-42
1.90098e-40
5.1017e-42
9.4854e-44
1.47604e-45
0.329789
0.0622412
0.00823526
0.00084554
0.000132715
2.11133e-06
2.13176e-08
1.49376e-10
7.72305e-13
3.08078e-15
9.76133e-18
2.5008e-20
5.23903e-23
1.62048e-25
3.45805e-18
4.35328e-16
-2.77865e-15
-2.21816e-16
-2.36716e-18
-8.50448e-21
-2.23438e-23
-4.95352e-26
-8.11004e-29
-1.06695e-31
-1.08675e-34
-9.07818e-38
5.32412e-38
2.45049e-39
5.35761e-41
9.23731e-43
0.329752
0.0622385
0.00823602
0.000845582
0.000132661
2.1099e-06
2.13621e-08
1.51036e-10
7.95153e-13
3.25962e-15
1.06598e-17
2.8055e-20
5.93697e-23
8.52868e-23
5.42463e-15
-6.77497e-12
-1.52644e-12
-1.95512e-12
-1.00101e-14
-3.84367e-17
-8.51996e-22
-1.97704e-26
-8.67501e-30
-2.44134e-32
-6.59858e-35
-9.48193e-38
2.02179e-40
1.14253e-41
2.444e-43
4.03353e-45
0.329701
0.0622225
0.00822992
0.000843649
0.000131948
2.08261e-06
2.096e-08
1.48413e-10
7.93663e-13
3.35426e-15
1.13528e-17
3.04744e-20
6.33365e-23
2.6202e-20
4.11907e-12
1.50741e-08
-1.57032e-08
-5.78218e-18
-3.26655e-24
-4.29559e-26
1.54021e-32
4.0779e-35
-2.27112e-39
-2.89741e-40
-1.83401e-40
-8.35748e-43
7.73561e-43
2.39225e-44
4.89422e-46
7.70448e-48
0.329638
0.0621866
0.00821381
0.000838711
0.000130192
2.01183e-06
1.97556e-08
1.37401e-10
7.38401e-13
3.23911e-15
1.16246e-17
3.36704e-20
7.75936e-23
2.14023e-19
3.30685e-11
0.00345501
6.91795e-06
-1.37042e-48
2.39001e-44
-1.03428e-48
-1.38169e-49
-7.96578e-49
-1.39012e-49
4.31234e-46
1.63091e-47
3.99011e-49
6.76057e-51
0.329567
0.0621292
0.0081848
0.000829862
0.000127027
1.88036e-06
1.74109e-08
1.14619e-10
6.16429e-13
3.00157e-15
1.28517e-17
4.27804e-20
1.03545e-22
-1.55731e-20
4.87668e-14
1.02508e-05
3.99825e-07
-1.31797e-55
1.87692e-50
1.18281e-48
5.84537e-51
1.42643e-53
3.34715e-53
1.02321e-47
5.54032e-49
1.50449e-50
3.21337e-52
0.329495
0.0620538
0.0081451
0.000817581
0.000122514
1.68868e-06
1.39588e-08
1.4973e-10
3.39281e-14
4.85312e-18
1.69834e-21
9.08372e-24
4.17131e-27
1.3206e-22
-8.37213e-15
5.43288e-08
5.64644e-10
-5.63635e-52
1.97717e-43
2.8255e-43
6.30973e-46
3.84096e-49
1.1478e-52
1.0514e-49
1.61484e-51
3.18037e-53
7.62064e-55
0.329437
0.0619797
0.008105
0.000805001
0.000117732
1.48381e-06
1.03213e-08
7.73334e-11
-9.57969e-31
-3.41168e-20
-1.56784e-16
3.01912e-12
4.69166e-14
-4.70405e-26
-2.01381e-31
-1.66413e-34
6.89322e-42
5.24332e-36
2.04158e-38
2.47811e-41
1.45114e-44
4.70466e-48
5.36114e-47
4.21523e-49
2.46569e-51
1.30514e-53
0.3294
0.0619314
0.00807926
0.000796965
0.000114508
1.34642e-06
8.12328e-09
4.12526e-11
-1.43521e-27
-1.65843e-20
-1.56526e-17
6.15203e-16
2.93893e-18
1.12523e-20
1.28992e-23
9.57896e-27
4.65398e-30
1.83668e-33
9.55331e-37
1.65276e-38
2.82382e-41
1.63331e-44
6.20218e-45
6.1145e-47
4.19636e-49
2.50417e-51
0.329403
0.0619322
0.00807925
0.000796935
0.000114159
1.32286e-06
7.74622e-09
3.60847e-11
-1.4763e-30
-2.83321e-25
-1.26771e-22
1.42471e-21
1.50335e-23
5.7074e-26
1.75312e-28
3.26477e-31
3.71048e-34
3.05595e-37
3.2158e-40
2.50512e-43
9.92425e-46
2.28468e-48
1.15063e-47
1.27525e-49
9.43676e-52
5.90094e-54
0.329435
0.0619786
0.00810451
0.000804875
0.000116781
1.41597e-06
9.07671e-09
5.13585e-11
-9.44535e-36
-3.87155e-29
-1.60249e-31
-7.28045e-30
-2.74723e-28
-1.32786e-32
1.37721e-35
-6.70137e-36
-1.55246e-38
4.76076e-41
8.29112e-43
2.18072e-45
2.19833e-48
1.08725e-51
2.80602e-50
3.48039e-52
2.71568e-54
1.7113e-56
0.329495
0.0620537
0.00814457
0.00081742
0.000121325
1.59982e-06
1.21754e-08
1.08463e-10
2.10488e-15
-1.57453e-27
5.26176e-33
1.46878e-31
-6.61808e-44
5.43933e-35
5.21498e-34
1.43686e-36
-3.71601e-41
-4.28615e-42
-9.42729e-46
-1.29546e-45
3.58915e-52
8.50161e-47
4.36294e-47
1.99931e-49
2.20093e-52
1.02168e-55
6.7852e-53
8.65037e-55
6.94783e-57
4.43165e-59
0.329563
0.0621277
0.00818408
0.000829668
0.000125982
1.80299e-06
1.58756e-08
9.94236e-11
5.09002e-13
2.46942e-15
8.33207e-18
1.29738e-20
8.78273e-24
4.93681e-27
5.59364e-30
6.87927e-33
9.0078e-38
-1.06682e-60
5.13527e-56
1.41435e-52
3.32657e-54
5.74249e-57
2.96985e-60
1.43354e-55
1.71304e-57
1.32412e-59
7.69693e-62
0.329637
0.0621856
0.00821305
0.000838515
0.000129444
1.95846e-06
1.87318e-08
1.27156e-10
6.8217e-13
3.10976e-15
1.20815e-17
3.91216e-20
1.0228e-22
2.09801e-25
3.08212e-28
2.52377e-31
3.68345e-36
-9.51241e-67
6.8249e-63
1.50526e-58
2.05056e-59
6.60545e-62
4.91435e-63
2.30499e-58
2.51265e-60
1.63647e-62
7.4064e-65
0.329711
0.0622217
0.00822907
0.000843468
0.000131465
2.05047e-06
2.03978e-08
1.43279e-10
7.67062e-13
3.28137e-15
1.12825e-17
3.06297e-20
6.41879e-23
1.00243e-25
1.08278e-28
1.35878e-31
1.44065e-37
-8.27783e-74
3.31889e-65
9.26967e-65
5.82308e-65
3.4791e-67
1.61081e-65
2.36979e-61
3.32771e-63
2.91349e-64
3.46407e-65
0.329749
0.0622407
0.00823605
0.000845424
0.00013236
2.09242e-06
2.10968e-08
1.49135e-10
7.89762e-13
3.27667e-15
1.0862e-17
2.87841e-20
6.01397e-23
9.61081e-26
1.1193e-28
1.74144e-31
1.56731e-36
3.9824e-45
1.72233e-51
3.18477e-52
-9.7348e-60
1.58893e-57
2.83727e-60
1.0747e-65
1.66498e-69
-5.21933e-66
-6.25898e-61
3.52852e-60
8.82749e-60
1.77602e-60
0.329774
0.062238
0.00823493
0.00084542
0.000132523
2.10234e-06
2.12151e-08
1.49029e-10
7.75383e-13
3.12257e-15
1.00018e-17
2.5821e-20
5.40731e-23
9.20466e-26
1.28162e-28
1.49873e-31
1.60021e-34
1.78706e-37
2.05651e-40
2.05357e-43
1.65859e-46
1.05714e-49
5.08013e-53
1.76131e-56
4.33054e-60
1.52693e-63
-2.79792e-56
2.3703e-56
2.8543e-56
4.32443e-57
0.329818
0.062233
0.00822942
0.000844147
0.000132278
2.09433e-06
2.10293e-08
1.46187e-10
7.47332e-13
2.9378e-15
9.15404e-18
2.30705e-20
4.77349e-23
8.21988e-26
1.20275e-28
1.54926e-31
1.84316e-34
2.07842e-37
2.15822e-40
1.97895e-43
1.58009e-46
1.10266e-49
6.77353e-53
3.70314e-56
1.80071e-59
1.38007e-58
-1.48435e-52
9.02731e-53
6.82264e-53
8.29951e-54
0.329844
0.0622248
0.00822235
0.000842213
0.000131741
2.07721e-06
2.0702e-08
1.42364e-10
7.17137e-13
2.76771e-15
8.45528e-18
2.09494e-20
4.29068e-23
7.40029e-26
1.09749e-28
1.43777e-31
1.71487e-34
1.90138e-37
1.92159e-40
1.05747e-43
-1.54323e-45
-3.60673e-47
-7.51667e-49
-1.51079e-50
-2.89952e-52
1.90388e-53
-1.01172e-47
8.07006e-49
3.10173e-49
2.42831e-50
0.329872
0.062212
0.00821176
0.000839124
0.000130878
2.04775e-06
2.02077e-08
1.3739e-10
6.82831e-13
2.59674e-15
7.82304e-18
1.92708e-20
4.27822e-23
1.63529e-25
2.28358e-27
4.65737e-29
8.64744e-31
1.36358e-32
1.45392e-34
-6.56312e-37
-1.03031e-37
-4.13535e-39
-1.25703e-40
-3.32749e-42
-7.91522e-44
-1.7726e-45
-1.64256e-42
1.90223e-44
2.28364e-45
9.14904e-47
0.329895
0.0622065
0.00820114
0.000834772
6.9481e-05
4.89618e-06
3.00073e-07
1.63082e-08
7.97849e-10
3.55594e-11
1.45761e-12
5.53991e-14
1.96573e-15
6.55344e-17
2.06542e-18
6.18892e-20
1.77175e-21
4.8617e-23
1.28037e-24
3.23519e-26
7.83916e-28
1.82033e-29
4.05171e-31
8.64698e-33
1.77086e-34
3.48094e-36
6.57139e-38
1.1917e-39
2.0786e-41
3.48187e-43
0.329917
0.0621946
0.0081913
0.000831803
6.89725e-05
4.84732e-06
2.96318e-07
1.60623e-08
7.83792e-10
3.48456e-11
1.42522e-12
5.40751e-14
1.91638e-15
6.38424e-17
2.01043e-18
6.01468e-20
1.71662e-21
4.68653e-23
1.22576e-24
3.07334e-26
7.38703e-28
1.70178e-29
3.75917e-31
7.96342e-33
1.61853e-34
3.15802e-36
5.91765e-38
1.06533e-39
1.8448e-41
3.06814e-43
0.329928
0.0621861
0.00818557
0.000830262
6.87173e-05
4.8176e-06
2.93679e-07
1.58703e-08
7.71785e-10
3.41844e-11
1.39282e-12
5.26191e-14
1.85692e-15
6.15714e-17
1.92907e-18
5.73604e-20
1.62492e-21
4.3979e-23
1.13925e-24
2.82716e-26
6.72357e-28
1.53296e-29
3.35121e-31
7.02743e-33
1.41437e-34
2.73263e-36
5.07161e-38
9.04288e-40
1.55126e-41
2.5576e-43
0.329933
0.062182
0.00818296
0.000829566
6.86009e-05
4.80399e-06
2.92477e-07
1.57845e-08
7.66555e-10
3.39049e-11
1.3793e-12
5.20394e-14
1.83333e-15
6.06859e-17
1.89701e-18
5.62596e-20
1.58863e-21
4.28284e-23
1.10448e-24
2.72741e-26
6.45463e-28
1.4642e-29
3.18554e-31
6.64879e-33
1.33177e-34
2.56209e-36
4.73426e-38
8.407e-40
1.43666e-41
2.36028e-43
0.329654
0.0617738
0.00803213
0.000799824
6.46506e-05
4.40842e-06
2.60633e-07
1.36354e-08
6.41333e-10
2.74639e-11
1.08195e-12
3.95527e-14
1.35165e-15
4.34532e-17
1.32137e-18
3.81824e-20
1.05236e-21
2.77423e-23
7.00839e-25
1.69848e-26
3.95177e-28
8.82821e-30
1.89397e-31
3.9025e-33
7.72431e-35
1.4691e-36
2.68537e-38
4.72051e-40
7.99102e-42
1.30232e-43
0.329655
0.0617751
0.00803274
0.000800008
6.46845e-05
4.41276e-06
2.61053e-07
1.3668e-08
6.43433e-10
2.75815e-11
1.08779e-12
3.98149e-14
1.36251e-15
4.38743e-17
1.33688e-18
3.87302e-20
1.07094e-21
2.83439e-23
7.19327e-25
1.75217e-26
4.09829e-28
9.20554e-30
1.98588e-31
4.1137e-33
8.18371e-35
1.56396e-36
2.8717e-38
5.06875e-40
8.61271e-42
1.40847e-43
0.329657
0.0617777
0.00803405
0.000800386
6.47537e-05
4.42171e-06
2.6192e-07
1.37351e-08
6.47808e-10
2.78292e-11
1.10025e-12
4.0381e-14
1.38615e-15
4.47967e-17
1.37105e-18
3.99421e-20
1.11224e-21
2.96888e-23
7.60817e-25
1.87288e-26
4.42878e-28
1.00591e-29
2.19439e-31
4.59544e-33
9.23885e-35
1.78315e-36
3.30535e-38
5.88637e-40
1.00857e-41
1.66231e-43
0.32966
0.061781
0.0080357
0.00080088
6.48543e-05
4.42799e-06
2.62374e-07
1.37716e-08
6.50471e-10
2.79948e-11
1.10913e-12
4.07958e-14
1.40356e-15
4.54745e-17
1.39587e-18
4.09686e-20
1.21387e-21
3.40015e-23
8.74578e-25
2.13943e-26
5.03631e-28
1.14148e-29
2.48933e-31
5.21797e-33
1.05046e-34
2.03008e-36
3.76695e-38
6.71355e-40
1.15066e-41
1.89705e-43
0.329667
0.0617847
0.0080369
0.000801494
0.000121894
1.81851e-06
1.69284e-08
1.09329e-10
5.68644e-13
4.24988e-15
9.03357e-17
2.79553e-18
8.58232e-20
2.50871e-21
6.68757e-23
-5.6795e-21
-4.95749e-22
-1.03151e-23
-9.38768e-26
-4.7794e-28
-1.54711e-30
-3.22693e-33
2.34474e-37
8.79896e-37
1.01705e-37
3.53548e-39
2.781e-41
7.74198e-43
1.78633e-44
3.61987e-46
0.329669
0.0617863
0.00803785
0.000801885
0.000122107
1.82933e-06
1.71145e-08
1.10128e-10
5.20721e-13
1.89775e-15
5.5233e-18
1.31902e-20
2.64239e-23
4.26025e-26
-9.47075e-20
-1.68315e-16
-1.05527e-17
-1.61411e-19
-1.38388e-21
-7.76505e-24
-2.94992e-26
-7.95903e-29
-1.57156e-31
-2.38357e-34
-3.07399e-37
-3.40418e-40
9.69802e-40
1.44363e-41
2.01851e-43
2.62552e-45
0.329671
0.061785
0.00803745
0.000801954
0.000122223
1.83769e-06
1.7307e-08
1.12514e-10
5.39672e-13
2.00298e-15
5.95149e-18
1.45134e-20
2.96217e-23
-3.00726e-23
-1.20211e-15
-1.91789e-12
-3.40693e-14
5.11842e-16
4.27494e-18
3.25066e-21
-6.02239e-23
-3.34846e-25
-9.98923e-28
-2.11739e-30
-3.54518e-33
-4.86583e-36
4.44027e-35
6.25931e-37
8.45303e-39
1.08492e-40
0.32967
0.0617784
0.0080342
0.000801336
0.000122154
1.84098e-06
1.74458e-08
1.14741e-10
5.60719e-13
2.13506e-15
6.53988e-18
1.64527e-20
3.44909e-23
-1.35925e-19
-6.2518e-12
-7.39153e-09
5.13342e-10
1.42284e-11
1.1121e-13
4.45931e-16
1.2117e-18
2.33992e-21
2.90402e-24
1.20347e-27
-4.51841e-30
-1.42813e-32
2.74045e-32
3.93069e-34
5.43141e-36
7.18814e-38
0.329665
0.0617628
0.0080263
0.000799526
0.000121759
1.83463e-06
1.74613e-08
1.16291e-10
5.82189e-13
2.2999e-15
7.37421e-18
1.946e-20
4.05779e-23
-2.51089e-16
-1.33733e-08
-5.46375e-06
-1.78718e-06
2.69403e-08
1.01292e-10
3.48412e-13
5.10564e-18
8.26316e-23
3.02407e-26
8.86083e-29
3.32492e-31
8.18083e-34
1.23044e-34
1.54252e-36
2.03418e-38
2.64033e-40
0.329656
0.0617333
0.00801128
0.000795827
0.000120821
1.81049e-06
1.72189e-08
1.15896e-10
5.9775e-13
2.48793e-15
8.54016e-18
2.42268e-20
-1.64008e-21
-2.18987e-13
-1.42584e-05
-0.0574784
-0.00967666
-1.07497e-12
-5.83211e-20
-5.33798e-22
-6.21513e-29
-2.23374e-31
1.52065e-35
6.14648e-37
5.67426e-37
3.65906e-39
1.29956e-37
2.16423e-39
3.30578e-41
4.61232e-43
0.329642
0.0616855
0.00798612
0.000789404
0.000119052
1.75698e-06
1.64943e-08
1.11071e-10
5.91036e-13
2.6426e-15
1.00264e-17
3.20537e-20
-6.76641e-20
-2.70866e-12
0.000192328
2470.56
5.41633
-1.86964e-44
-1.61042e-40
8.92916e-45
3.6055e-45
5.17521e-45
1.0168e-45
6.76305e-41
1.62434e-42
3.17038e-44
5.07652e-46
0.329622
0.0616176
0.00794957
0.000779732
0.000116219
1.66163e-06
1.49935e-08
9.7559e-11
5.19838e-13
2.55114e-15
1.12013e-17
3.62579e-20
-5.38973e-23
-8.14702e-15
1.46816e-06
17.9516
0.0759707
1.40263e-50
3.03363e-44
4.87828e-44
1.09807e-45
9.48647e-48
9.58191e-50
1.38027e-44
7.86557e-46
2.24673e-47
4.64948e-49
0.329608
0.0615357
0.00790495
0.000767487
0.000112414
1.52156e-06
1.2509e-08
1.33997e-10
2.92786e-14
3.75774e-18
1.18367e-21
2.84402e-24
6.86733e-25
-3.28835e-15
-4.7561e-07
0.229409
0.000460972
-2.87182e-47
1.8665e-36
2.68795e-38
2.37446e-41
8.522e-45
1.81533e-48
4.86567e-47
1.05022e-48
2.60665e-50
6.6346e-52
0.32959
0.0614591
0.00786248
0.000755573
0.000108506
1.36801e-06
9.59615e-09
6.83e-11
-6.47978e-25
-5.34526e-15
-1.88639e-09
2.46133e-05
3.8171e-07
-1.3541e-19
-1.20291e-24
3.96111e-27
1.12587e-33
3.72524e-30
4.09297e-33
2.35024e-36
8.22187e-40
1.90036e-43
4.99988e-44
2.40174e-46
1.12376e-48
5.29416e-51
0.32958
0.0614122
0.00783634
0.000748212
0.00010593
1.26435e-06
7.81534e-09
3.85908e-11
-1.57621e-20
-9.46461e-14
-1.8962e-10
2.69286e-08
2.62354e-10
3.27685e-13
3.7721e-16
2.60965e-19
1.19544e-22
4.84599e-26
5.29449e-29
3.42278e-32
1.31508e-35
3.35513e-39
1.27294e-41
6.87877e-44
3.50697e-46
1.70995e-48
0.329581
0.0614122
0.00783609
0.00074817
0.000105653
1.24561e-06
7.49961e-09
3.44545e-11
-2.12414e-24
-2.32581e-18
-1.98988e-15
2.56816e-13
4.11677e-15
7.7392e-18
1.20394e-20
1.52138e-23
1.32383e-26
1.01382e-29
7.99583e-33
9.0851e-36
7.68918e-39
3.24903e-42
2.29666e-44
1.41111e-46
7.97074e-49
4.18141e-51
0.32959
0.0614582
0.00786186
0.000755437
0.000107752
1.31459e-06
8.54454e-09
4.62809e-11
-1.10894e-28
-1.43893e-23
-4.43769e-24
1.41609e-21
-1.91633e-21
-9.90695e-26
4.59319e-29
-1.39184e-28
-3.00842e-31
4.1786e-34
7.26711e-37
7.90266e-40
4.98875e-43
1.88466e-46
2.0553e-47
1.98398e-49
1.38492e-51
8.06628e-54
0.329604
0.0615336
0.00790408
0.000767273
0.000111465
1.45283e-06
1.10502e-08
9.44923e-11
1.5158e-15
2.46113e-26
3.62436e-33
1.55477e-31
-4.03297e-36
-4.01416e-30
-4.86166e-33
-2.20464e-32
-1.59922e-35
9.13634e-36
2.91575e-36
5.74384e-38
4.02554e-44
6.3308e-40
9.86722e-42
2.04383e-44
1.64639e-47
6.75881e-51
2.61309e-50
2.99707e-52
2.32664e-54
1.42427e-56
0.329625
0.0616156
0.00794862
0.000779489
0.000115371
1.60336e-06
1.38792e-08
8.56359e-11
4.18588e-13
1.96398e-15
5.64385e-18
5.41301e-21
1.56086e-24
5.73705e-28
1.6039e-30
3.07281e-33
2.68011e-38
2.23317e-54
7.0118e-49
2.58872e-47
1.91898e-49
2.2763e-52
1.04904e-55
3.43822e-53
3.96134e-55
3.06659e-57
1.7294e-59
0.329643
0.0616842
0.00798513
0.000789163
0.00011842
1.71638e-06
1.58077e-08
1.0503e-10
5.62862e-13
2.62457e-15
1.08464e-17
3.86554e-20
1.13429e-22
2.67344e-25
4.69153e-28
4.58684e-31
6.74911e-36
-1.0679e-60
2.23758e-57
1.56478e-53
6.54914e-55
1.33489e-57
6.75829e-61
3.08902e-56
3.24666e-58
2.2525e-60
9.26012e-63
0.329666
0.0617353
0.0080105
0.00079561
0.000120386
1.78473e-06
1.68376e-08
1.13243e-10
5.91748e-13
2.54045e-15
9.09576e-18
2.69702e-20
6.56106e-23
1.28183e-25
1.86945e-28
3.17893e-31
3.10254e-37
-1.21043e-68
6.06917e-65
2.20021e-60
6.30357e-61
2.581e-63
-2.84856e-65
2.22823e-59
4.833e-60
6.67734e-61
5.11348e-62
0.329654
0.0617618
0.00802574
0.000799301
0.000121477
1.81861e-06
1.72589e-08
1.15255e-10
5.8375e-13
2.35475e-15
7.762e-18
2.10814e-20
4.71809e-23
8.64248e-26
1.27316e-28
2.8136e-31
4.73243e-36
1.86806e-44
3.65637e-51
2.78077e-52
-1.07672e-60
3.50899e-58
3.39951e-61
3.03983e-63
9.12356e-67
-1.26851e-63
6.8326e-56
1.45083e-56
1.38126e-57
7.66228e-59
0.329671
0.0617723
0.00803325
0.00080116
0.000121949
1.83114e-06
1.73366e-08
1.14382e-10
5.6371e-13
2.17596e-15
6.77884e-18
1.73448e-20
3.68193e-23
6.53947e-26
9.83879e-29
1.29745e-31
1.60844e-34
2.09842e-37
2.84987e-40
3.25841e-43
2.81208e-46
1.79839e-49
8.63719e-53
3.16262e-56
9.1962e-60
-2.06737e-60
1.10187e-52
1.87205e-53
1.46373e-54
7.25844e-56
0.329672
0.0617837
0.00803634
0.000801697
0.000122073
1.83124e-06
1.72436e-08
1.12381e-10
5.42085e-13
2.02867e-15
6.08565e-18
1.49786e-20
3.07658e-23
5.35871e-26
8.07987e-29
1.08818e-31
1.37013e-34
1.67456e-37
1.95753e-40
2.11155e-43
2.06692e-46
1.82955e-49
1.4623e-52
1.05592e-55
6.85578e-59
-6.50488e-57
1.77146e-49
2.36085e-50
1.47791e-51
6.37031e-53
0.32967
0.0617853
0.00803718
0.000801697
0.000122002
1.82485e-06
1.70785e-08
1.10089e-10
5.22301e-13
1.9127e-15
5.59751e-18
1.34294e-20
2.69844e-23
4.62804e-26
6.92133e-29
9.24874e-32
1.1339e-34
1.29905e-37
1.36969e-40
8.99861e-44
-8.92553e-46
-2.13449e-47
-4.42458e-49
-8.84227e-51
-1.70394e-52
-4.32437e-53
5.37064e-46
4.84646e-47
2.21147e-48
7.56456e-50
0.329667
0.0617837
0.0080362
0.000801295
0.000121816
1.81546e-06
1.68764e-08
1.07773e-10
5.04973e-13
1.82126e-15
5.24138e-18
1.24604e-20
2.72675e-23
1.09587e-25
1.58422e-27
3.16759e-29
6.0115e-31
1.00354e-32
1.32173e-34
6.96646e-37
-3.34076e-38
-1.75926e-39
-5.81355e-41
-1.56681e-42
-3.87819e-44
-8.74351e-46
3.10372e-42
1.56581e-43
4.80596e-45
1.21512e-46
0.329661
0.0617797
0.00803499
0.00080069