/*--------------------------------*- C++ -*----------------------------------*\
  =========                 |
  \\      /  F ield         | OpenFOAM: The Open Source CFD Toolbox
   \\    /   O peration     | Website:  https://openfoam.org
    \\  /    A nd           | Version:  10
     \\/     M anipulation  |
\*---------------------------------------------------------------------------*/
FoamFile
{
    format      ascii;
    class       volScalarField;
    location    "0.5";
    object      T;
}
// * * * * * * * * * * * * * * * * * * * * * * * * * * * * * * * * * * * * * //

dimensions      [0 0 0 1 0 0 0];

internalField   nonuniform List<scalar> 
96305
(
0.0951888
0.00466883
0.000153741
3.80403e-06
7.53905e-08
1.24782e-09
1.77586e-11
2.22022e-13
2.47933e-15
2.50648e-17
2.31948e-19
1.98315e-21
1.57926e-23
1.17973e-25
8.31955e-28
5.56945e-30
3.55574e-32
2.17263e-34
1.27353e-36
7.17106e-39
3.88185e-41
2.02048e-43
1.01128e-45
4.86715e-48
2.25238e-50
1.00248e-52
4.2903e-55
1.76559e-57
6.99855e-60
2.66748e-62
0.0951891
0.00466835
0.00015369
3.80178e-06
7.53337e-08
1.24688e-09
1.77458e-11
2.2184e-13
2.47673e-15
2.50295e-17
2.31505e-19
1.97797e-21
1.57377e-23
1.17447e-25
8.27483e-28
5.53625e-30
3.53437e-32
2.16083e-34
1.26806e-36
7.15111e-39
3.87779e-41
2.02208e-43
1.01399e-45
4.88987e-48
2.26699e-50
1.01043e-52
4.32946e-55
1.78259e-57
7.06566e-60
2.69184e-62
0.0951894
0.0046677
0.000153616
3.79824e-06
7.52496e-08
1.24574e-09
1.77343e-11
2.21729e-13
2.47577e-15
2.50221e-17
2.31405e-19
1.9761e-21
1.57079e-23
1.1708e-25
8.23939e-28
5.50958e-30
3.51945e-32
2.15583e-34
1.26889e-36
7.18065e-39
3.90733e-41
2.04361e-43
1.0272e-45
4.96079e-48
2.30093e-50
1.0248e-52
4.38416e-55
1.80085e-57
7.1148e-60
2.69819e-62
0.0951898
0.00466551
0.000153378
3.78686e-06
7.49679e-08
1.24113e-09
1.76731e-11
2.20932e-13
2.4665e-15
2.49276e-17
2.30528e-19
1.96819e-21
1.56378e-23
1.16523e-25
8.20705e-28
5.50677e-30
3.54417e-32
2.19787e-34
1.31539e-36
7.59423e-39
4.22538e-41
2.26385e-43
1.16789e-45
5.80143e-48
2.7725e-50
1.27389e-52
5.61299e-55
2.36361e-57
9.53605e-60
3.68031e-62
0.0951939
0.00465849
0.000152612
3.7092e-06
1.19225e-07
6.08194e-11
1.88549e-14
6.06309e-18
1.27485e-20
2.58992e-23
-5.03185e-25
-9.58038e-27
-1.11763e-28
-1.07171e-30
-9.20448e-33
-7.36823e-35
-5.61019e-37
-4.04361e-39
-2.7508e-41
-1.77424e-43
-1.0941e-45
-6.48732e-48
2.03216e-49
3.37009e-51
2.5005e-53
1.45067e-55
2.16093e-58
1.39879e-60
7.56592e-63
3.57825e-65
0.0951938
0.00465574
0.000152301
3.69526e-06
1.18799e-07
6.1653e-11
1.95144e-14
4.38657e-18
7.64182e-22
1.07429e-25
1.24655e-29
1.16637e-33
-2.32686e-37
-2.2925e-39
-4.29253e-42
1.5003e-38
2.54584e-41
6.67446e-44
9.59643e-46
5.39448e-49
9.82802e-53
5.9423e-57
1.08473e-56
1.0244e-57
1.61382e-59
1.36008e-61
6.41385e-62
6.56852e-64
4.51014e-66
2.46185e-68
0.0951933
0.00465351
0.000152024
3.67957e-06
1.1794e-07
6.08822e-11
1.91384e-14
4.26847e-18
7.38865e-22
1.03118e-25
1.18191e-29
1.12016e-33
8.80204e-38
5.77057e-42
1.08556e-36
1.96514e-33
-1.87434e-36
-1.31552e-38
4.86861e-40
4.58271e-43
1.61835e-46
3.10632e-50
2.85442e-54
1.00482e-58
1.48081e-63
1.17636e-67
-3.94166e-64
-4.64811e-66
-3.49046e-68
-2.14506e-70
0.0951909
0.00465042
0.000151633
3.65654e-06
1.16543e-07
5.92509e-11
1.8252e-14
3.98651e-18
6.772e-22
9.28233e-26
1.03908e-29
9.47285e-34
6.96184e-38
-3.72849e-41
4.19295e-32
1.52723e-28
-4.20095e-31
-7.98781e-33
7.72587e-35
9.77235e-38
4.24545e-41
1.02549e-44
1.50106e-48
1.27976e-52
7.25899e-57
3.01316e-61
1.55269e-61
-9.83686e-63
-9.14514e-65
-5.85597e-67
0.0951886
0.0046457
0.000151026
3.61908e-06
1.14147e-07
5.63098e-11
1.66508e-14
3.48344e-18
5.69623e-22
7.57353e-26
8.19763e-30
6.94272e-34
4.24042e-38
-5.197e-37
5.70505e-28
7.15018e-24
-4.63664e-28
-3.49273e-31
-9.00856e-34
-7.23742e-38
-6.87597e-42
-1.1642e-46
-2.63271e-51
3.05263e-53
7.79385e-57
8.49095e-61
1.02069e-63
-1.85215e-65
-1.70312e-67
-1.01763e-69
0.0951826
0.00463863
0.000150093
3.55986e-06
1.10221e-07
5.1387e-11
1.40173e-14
2.68166e-18
4.04827e-22
4.84178e-26
4.06421e-30
2.05289e-34
5.41706e-39
3.12541e-32
-5.15949e-24
2.95349e-21
-6.66162e-25
-1.91531e-37
-5.21923e-43
-3.6223e-48
-1.62404e-54
5.14517e-56
2.59619e-61
1.38006e-60
6.21072e-63
1.27786e-66
-1.18647e-66
-1.76047e-68
-1.28634e-70
-6.57923e-73
0.0951739
0.00462846
0.000148731
3.47194e-06
1.04226e-07
4.38767e-11
1.02049e-14
1.60413e-18
1.86716e-22
1.61968e-26
1.25707e-30
9.73261e-35
1.62109e-37
3.46405e-28
2.60501e-19
6.58929e-16
-1.10239e-17
-1.86974e-77
3.34589e-66
1.2987e-71
5.73512e-71
4.39701e-72
3.04512e-74
-1.95818e-70
-2.38625e-72
-2.08493e-74
-7.09435e-76
0.0951629
0.00461505
0.000146918
3.35298e-06
9.59014e-08
3.38167e-11
5.72346e-15
5.4756e-19
4.33574e-23
8.8624e-27
3.22092e-30
8.09511e-34
1.3421e-37
1.62746e-31
9.84102e-23
5.79473e-20
-5.93268e-22
-9.50914e-88
1.92122e-76
4.23028e-75
3.36395e-78
3.44192e-82
-8.60898e-78
-1.93072e-71
-1.35868e-72
-1.54118e-74
-1.40979e-76
0.0951487
0.00459975
0.000144821
3.21412e-06
8.5937e-08
2.2744e-11
1.93532e-15
4.36539e-20
-1.24747e-26
-4.03124e-30
-7.25493e-34
1.47043e-36
1.30501e-40
2.46707e-35
9.39083e-27
1.77822e-23
-2.60949e-26
-8.77403e-86
-6.63189e-70
4.24063e-69
2.0764e-72
1.74878e-76
-4.89569e-82
3.53239e-74
5.10727e-77
-7.68032e-79
-2.98019e-80
0.0951373
0.00458576
0.000142898
3.08644e-06
7.65062e-08
1.37587e-11
2.44493e-16
-4.88274e-22
-2.9276e-55
-1.94877e-36
-2.77083e-30
2.57603e-27
-1.10176e-32
2.53906e-47
-2.67558e-57
-2.5787e-59
5.02462e-65
7.23962e-61
9.29019e-64
2.60327e-67
2.46958e-71
1.07702e-75
3.80494e-71
1.13956e-73
2.3377e-76
4.38185e-79
0.0951279
0.00457723
0.000141736
3.00967e-06
7.04669e-08
9.06527e-12
9.81605e-19
-1.74607e-22
-2.46765e-50
-4.00784e-37
-1.24902e-32
1.34638e-33
3.52222e-35
8.95861e-38
1.20273e-41
6.29874e-46
6.86293e-51
-8.52971e-55
-5.9849e-59
-2.07237e-63
-2.33778e-68
4.1342e-72
4.07408e-69
1.85243e-71
5.12031e-74
1.25171e-76
0.0951279
0.00457728
0.000141736
3.00954e-06
6.96585e-08
8.23021e-12
7.95577e-19
-1.47045e-22
-2.67049e-53
-6.09541e-43
-3.38675e-39
5.5195e-39
-2.38627e-42
1.69448e-45
1.14946e-49
-6.84718e-53
-1.50761e-56
-1.59899e-60
-2.33063e-64
-2.87033e-68
-1.70614e-72
-5.63431e-77
1.33403e-72
7.38635e-75
2.27186e-77
6.06865e-80
0.0951367
0.00458563
0.000142886
3.08578e-06
7.43694e-08
1.1009e-11
1.6142e-17
-2.55754e-22
-2.20685e-61
-2.0566e-48
1.31332e-48
3.05802e-48
9.95158e-48
-7.97571e-51
-1.37697e-54
1.20829e-58
1.08693e-63
2.0128e-68
8.23181e-70
9.61352e-73
1.4719e-76
7.9747e-81
2.33769e-75
1.13761e-77
3.16413e-80
7.64173e-83
0.0951488
0.00459964
0.000144804
3.21308e-06
8.32055e-08
1.81448e-11
8.40953e-16
-8.33717e-22
3.10095e-32
9.46413e-43
-5.8828e-46
2.82568e-49
5.90127e-57
9.95519e-50
1.76293e-51
1.48414e-56
1.20096e-64
-3.06274e-72
-2.49542e-71
4.61726e-73
-2.30198e-79
-4.12753e-74
3.53938e-74
3.42733e-77
4.1903e-81
1.46941e-85
3.16618e-78
1.41332e-80
3.83914e-83
9.43327e-86
0.0951621
0.00461488
0.000146894
3.35156e-06
9.33455e-08
2.87087e-11
3.6769e-15
2.14522e-19
2.26581e-23
1.31852e-26
3.93247e-30
5.47512e-34
4.18785e-38
2.21532e-42
8.05786e-47
-4.98842e-53
8.46245e-65
2.57654e-96
5.09872e-85
1.14108e-80
8.49606e-83
1.80828e-86
-4.67823e-88
3.0508e-81
1.29409e-83
3.35588e-86
7.45872e-89
0.095174
0.00462822
0.000148706
3.47023e-06
1.02224e-07
3.94995e-11
8.01513e-15
1.03513e-18
9.658e-23
9.47098e-27
1.25081e-30
2.59435e-34
4.54837e-38
4.58067e-42
2.08357e-46
-1.97838e-51
6.34489e-63
2.97438e-105
1.65072e-92
1.15987e-87
6.37647e-89
2.866e-92
6.13083e-90
2.15817e-84
8.75659e-87
2.02824e-89
4.31736e-92
0.0951814
0.00463821
0.00015005
3.55778e-06
1.08763e-07
4.81317e-11
1.22206e-14
2.15082e-18
2.93833e-22
2.92522e-26
1.92487e-30
8.70934e-35
2.90847e-39
7.32694e-44
1.48371e-48
-3.10045e-52
6.30006e-64
-1.17337e-106
-2.92167e-89
-1.03503e-94
2.00374e-95
-1.60913e-95
-3.50114e-90
2.14156e-86
-7.85089e-88
5.00039e-88
4.58521e-89
0.0951975
0.00464599
0.000151014
3.61753e-06
1.13136e-07
5.40693e-11
1.53731e-14
3.08206e-18
4.84973e-22
6.21555e-26
6.22389e-30
4.36447e-34
1.82904e-38
3.62201e-43
2.96828e-48
-5.69338e-52
7.76049e-61
-1.81164e-72
-1.13054e-77
-7.3091e-81
-8.76718e-83
-1.96141e-82
-2.04882e-87
5.56945e-94
-4.46165e-90
-1.76583e-84
1.2983e-80
1.78625e-82
2.28699e-82
1.64142e-83
0.0951827
0.00465024
0.000151608
3.65454e-06
1.15849e-07
5.77554e-11
1.73957e-14
3.70986e-18
6.16014e-22
8.25972e-26
9.0227e-30
7.9378e-34
5.45106e-38
2.74661e-42
9.02998e-47
1.71737e-51
4.35922e-56
8.15406e-59
2.29329e-62
2.57459e-66
1.84147e-70
9.51846e-75
3.51732e-79
8.51605e-84
1.31231e-86
-4.32538e-81
8.01789e-75
1.43062e-76
1.47302e-76
1.07118e-77
0.0951933
0.00465288
0.000151982
3.67757e-06
1.17439e-07
5.98536e-11
1.85553e-14
4.07865e-18
6.95518e-22
9.55176e-26
1.0724e-29
9.85271e-34
7.38622e-38
4.51636e-42
2.28651e-46
9.89774e-51
3.70197e-55
1.32117e-59
5.56607e-64
-4.3008e-68
-2.32219e-70
-9.52393e-73
-9.38396e-75
-4.70215e-75
3.205e-76
-2.64876e-75
4.79639e-69
7.68471e-71
1.08249e-71
2.00172e-73
0.0951938
0.00465558
0.000152272
3.69311e-06
1.18441e-07
6.10659e-11
1.91993e-14
4.2799e-18
7.39279e-22
1.02832e-25
1.17577e-29
1.11671e-33
8.87263e-38
5.91952e-42
1.24655e-46
-1.29585e-48
-7.39781e-51
-3.92822e-53
-1.95279e-55
-8.97727e-58
-3.92571e-60
-1.80674e-62
-1.65377e-64
-7.74589e-65
6.8578e-66
3.93829e-67
2.81869e-63
3.7604e-65
3.26845e-67
2.34893e-69
0.0951939
0.00465827
0.000152583
3.70726e-06
1.18832e-07
6.10088e-11
1.91165e-14
4.24809e-18
7.27698e-22
7.85788e-26
-1.97064e-28
-1.78483e-30
-1.39615e-32
-1.03345e-34
-7.16467e-37
-4.72685e-39
-2.96887e-41
-1.75654e-43
-1.01127e-45
-5.55542e-48
-2.96895e-50
-1.57037e-52
-8.13482e-55
-1.37982e-56
7.81858e-58
1.25889e-59
3.73733e-59
3.0178e-61
1.88351e-63
1.02814e-65
0.0951898
0.00466528
0.000153349
3.78495e-06
7.48875e-08
1.23869e-09
1.7615e-11
2.198e-13
2.44785e-15
2.46598e-17
2.27123e-19
1.92942e-21
1.52345e-23
1.12696e-25
7.8707e-28
5.23113e-30
3.33091e-32
2.04155e-34
1.20607e-36
6.86112e-39
3.75333e-41
1.97308e-43
9.96738e-46
4.84321e-48
2.26725e-50
1.02401e-52
4.45622e-55
1.86407e-57
7.5107e-60
2.91077e-62
0.0951894
0.0046675
0.000153586
3.79627e-06
7.51666e-08
1.24321e-09
1.76742e-11
2.20552e-13
2.45635e-15
2.47431e-17
2.27861e-19
1.93579e-21
1.52922e-23
1.13128e-25
7.89172e-28
5.22411e-30
3.29954e-32
1.99555e-34
1.15796e-36
6.45041e-39
3.44881e-41
1.76986e-43
8.72103e-46
4.13046e-48
1.88159e-50
8.2539e-53
3.48939e-55
1.42297e-57
5.60694e-60
2.13299e-62
0.0951892
0.00466815
0.000153663
3.7999e-06
7.52529e-08
1.24439e-09
1.76867e-11
2.20682e-13
2.45763e-15
2.47557e-17
2.28057e-19
1.93858e-21
1.5331e-23
1.13595e-25
7.93773e-28
5.26e-30
3.3221e-32
2.00682e-34
1.16214e-36
6.45959e-39
3.44823e-41
1.76855e-43
8.72079e-46
4.13815e-48
1.89157e-50
8.33501e-53
3.54424e-55
1.45482e-57
5.77376e-60
2.21428e-62
0.0951888
0.00466863
0.000153712
3.80209e-06
7.53085e-08
1.24531e-09
1.76993e-11
2.20866e-13
2.46035e-15
2.47937e-17
2.28527e-19
1.94456e-21
1.53947e-23
1.1422e-25
7.99093e-28
5.30174e-30
3.35071e-32
2.02463e-34
1.17243e-36
6.51611e-39
3.47892e-41
1.78536e-43
8.81333e-46
4.18852e-48
1.9178e-50
8.47034e-53
3.61015e-55
1.48592e-57
5.916e-60
2.27652e-62
0.0952028
0.00476356
0.000163519
4.3114e-06
9.29203e-08
1.70308e-09
2.72821e-11
3.89691e-13
5.04012e-15
5.97527e-17
6.55826e-19
6.71933e-21
6.47172e-23
5.89489e-25
5.10459e-27
4.22066e-29
3.34392e-31
2.54521e-33
1.8643e-35
1.31527e-37
8.94164e-40
5.85742e-42
3.697e-44
2.24805e-46
1.31694e-48
7.43504e-51
4.04556e-53
2.1228e-55
1.07578e-57
5.25941e-60
0.0952024
0.00476401
0.00016358
4.31542e-06
9.30896e-08
1.70817e-09
2.73995e-11
3.91901e-13
5.0758e-15
6.02627e-17
6.62411e-19
6.79755e-21
6.55817e-23
5.98519e-25
5.19466e-27
4.30723e-29
3.42447e-31
2.61751e-33
1.92652e-35
1.36632e-37
9.34014e-40
6.15265e-42
3.90495e-44
2.38724e-46
1.40552e-48
7.97146e-51
4.35638e-53
2.29466e-55
1.16685e-57
5.72205e-60
0.0952014
0.00476499
0.000163716
4.32427e-06
9.34624e-08
1.71935e-09
2.76579e-11
3.96854e-13
5.158e-15
6.14746e-17
6.78496e-19
6.99251e-21
6.77663e-23
6.21492e-25
5.42399e-27
4.52694e-29
3.62749e-31
2.7983e-33
2.08098e-35
1.49227e-37
1.03189e-39
6.87637e-42
4.41491e-44
2.7293e-46
1.62428e-48
9.30297e-51
5.13036e-53
2.72488e-55
1.39598e-57
6.8909e-60
0.0951996
0.00476655
0.000163955
4.34153e-06
9.4195e-08
1.73965e-09
2.80971e-11
4.0473e-13
5.28045e-15
6.31628e-17
6.99477e-19
7.22941e-21
7.02262e-23
6.45301e-25
5.64327e-27
4.72312e-29
3.80093e-31
2.95009e-33
2.21085e-35
1.59933e-37
1.11605e-39
7.5062e-42
4.86316e-44
3.03268e-46
1.81923e-48
1.04909e-50
5.8165e-53
3.10236e-55
1.59479e-57
7.89847e-60
0.0951976
0.00476784
0.000164236
4.36821e-06
1.86478e-07
2.13961e-10
1.53806e-13
7.63349e-17
1.03395e-20
-3.38182e-22
-4.91143e-24
-5.89755e-26
-6.279e-28
-6.13309e-30
-5.60921e-32
-4.84139e-34
-4.12679e-36
-3.38612e-38
-2.66333e-40
-1.99661e-42
-1.42888e-44
-9.749e-47
-6.33069e-49
-3.9501e-51
1.80478e-52
3.94395e-54
9.80613e-57
8.85129e-59
6.42852e-61
4.03374e-63
0.0951943
0.00476956
0.000164499
4.38641e-06
1.88012e-07
2.1759e-10
1.57693e-13
7.92086e-17
2.94196e-20
8.47136e-24
1.95651e-27
3.71541e-31
5.79123e-35
-3.08504e-39
1.84715e-33
1.5066e-30
7.8e-34
-1.64399e-36
-6.71984e-40
9.20448e-44
1.15839e-46
3.81662e-50
7.63097e-54
1.07553e-57
1.32757e-60
2.23673e-61
1.39766e-60
2.10399e-62
2.02996e-64
1.54036e-66
0.0951918
0.00477094
0.000164684
4.39804e-06
1.88959e-07
2.20165e-10
1.6105e-13
8.18507e-17
3.08425e-20
9.03049e-24
2.12199e-27
4.09257e-31
6.59014e-35
1.77772e-37
2.46084e-28
1.49458e-25
-1.9847e-28
-2.60386e-31
-1.30651e-36
4.29266e-38
1.81535e-41
4.44022e-45
7.39987e-49
9.88016e-53
1.12272e-56
1.09162e-60
-2.59018e-58
-2.555e-60
-1.71464e-62
-9.78831e-65
0.0951871
0.00477187
0.000164811
4.40553e-06
1.89528e-07
2.21718e-10
1.6332e-13
8.39504e-17
3.2175e-20
9.63117e-24
2.31856e-27
4.56771e-31
7.44288e-35
-4.01045e-33
1.33392e-23
3.47725e-21
-1.80534e-23
-4.63364e-27
1.30064e-29
7.59522e-33
2.74165e-36
9.52414e-40
2.28833e-43
3.78461e-47
4.24894e-51
3.9151e-55
-7.63101e-55
-6.42431e-57
-4.1378e-59
-2.29906e-61
0.0951813
0.00477222
0.000164855
4.40674e-06
1.89514e-07
2.21699e-10
1.63834e-13
8.5045e-17
3.32307e-20
1.02369e-23
2.54701e-27
5.16002e-31
8.31767e-35
-4.33861e-28
2.86826e-19
-8.97853e-17
-2.37214e-20
-6.65736e-22
-4.06088e-25
-1.31484e-28
-1.62254e-35
-6.04767e-42
3.60705e-47
2.23219e-48
7.32579e-52
1.15713e-55
-1.56308e-57
-1.14369e-59
-6.86051e-62
-3.59549e-64
0.0951717
0.00477157
0.000164758
4.39738e-06
1.88511e-07
2.18845e-10
1.6083e-13
8.37125e-17
3.32937e-20
1.06007e-23
2.73679e-27
5.66744e-31
-1.65676e-32
-9.9253e-24
1.67609e-15
1.18486e-12
-7.02811e-16
1.73016e-30
8.88816e-37
-1.86182e-39
5.6817e-47
4.68733e-51
1.66685e-56
3.03001e-57
2.27926e-58
1.13357e-61
-9.56333e-61
-7.33222e-63
-4.55422e-65
-2.34041e-67
0.0951588
0.00476934
0.000164452
4.37181e-06
1.85934e-07
2.11212e-10
1.51497e-13
7.75957e-17
3.11233e-20
1.03295e-23
2.83629e-27
6.34514e-31
-1.64091e-32
2.92892e-22
-2.60745e-14
2.17971e-05
-8.55029e-09
6.29337e-66
2.48148e-61
1.04936e-66
1.56946e-67
1.05937e-67
7.52133e-69
-1.2004e-64
-1.51676e-66
-1.20859e-68
-6.89673e-71
0.0951425
0.00476533
0.00016387
4.32492e-06
1.81221e-07
1.96907e-10
1.33154e-13
6.47072e-17
2.60778e-20
9.63337e-24
3.16935e-27
8.16813e-31
6.67197e-34
1.51374e-25
-1.98005e-17
4.75507e-09
-1.1228e-12
-1.45106e-72
3.27373e-70
1.36687e-68
4.05742e-72
-1.4477e-75
5.4846e-74
-9.54318e-68
-7.53386e-69
-8.92469e-71
-7.40928e-73
0.0951242
0.00475967
0.000163052
4.25892e-06
1.74447e-07
1.75984e-10
1.06029e-13
8.77426e-17
1.31509e-22
3.48596e-28
1.58893e-31
6.74293e-35
-8.00362e-38
-1.43375e-27
4.3317e-19
1.53928e-12
-5.98536e-17
-1.69436e-71
2.14259e-61
3.61447e-62
7.89037e-66
4.64057e-70
1.34348e-74
9.91616e-71
8.86218e-74
-3.40634e-75
-1.21267e-76
0.0951081
0.00475389
0.000162213
4.19083e-06
1.67247e-07
1.53609e-10
7.72664e-14
4.32518e-17
-1.13735e-43
-5.43698e-28
1.60471e-23
5.89635e-19
7.27015e-23
-5.53557e-38
-3.31582e-45
-4.23556e-49
1.7012e-57
7.71503e-53
2.89494e-56
3.39312e-60
1.90002e-64
5.90279e-69
2.24644e-67
5.17043e-70
9.22543e-73
1.51208e-75
0.0950971
0.00475005
0.000161673
4.14737e-06
1.62399e-07
1.38673e-10
6.00161e-14
2.21382e-17
1.10325e-38
-2.21603e-29
-5.66312e-26
-1.10711e-24
-1.04395e-28
4.01158e-32
4.94446e-36
3.51434e-40
1.54673e-44
5.39461e-49
2.12019e-53
2.55625e-56
4.11337e-60
2.24086e-64
7.88158e-65
2.28885e-67
4.81177e-70
8.92132e-73
0.0950978
0.00475012
0.000161673
4.1472e-06
1.61867e-07
1.36129e-10
5.70943e-14
1.92067e-17
1.33557e-42
-1.04617e-35
-5.07163e-32
5.518e-32
5.80177e-35
1.90756e-38
5.71607e-42
9.07217e-46
8.32863e-50
5.8451e-54
6.12915e-58
4.48962e-62
1.42915e-65
3.18975e-69
2.65194e-68
9.76435e-71
2.39472e-73
4.90713e-76
0.0951073
0.00475379
0.000162203
4.19014e-06
1.65791e-07
1.46222e-10
6.74728e-14
2.79956e-17
7.37682e-49
-4.94161e-40
1.05783e-40
-2.7156e-39
-5.56475e-40
2.03335e-44
1.39974e-49
-2.93375e-51
-5.84426e-55
8.63847e-59
1.3462e-61
3.37411e-65
3.25751e-69
1.56025e-73
1.7795e-71
7.37769e-74
1.90869e-76
3.93531e-79
0.0951242
0.00475966
0.000163041
4.25804e-06
1.72629e-07
1.66297e-10
9.19778e-14
6.25037e-17
2.91943e-24
-1.43031e-38
8.83777e-45
1.75574e-44
-4.84729e-59
-1.52294e-46
2.73317e-49
1.35346e-48
-1.29436e-53
-1.52012e-55
-5.42287e-61
-1.50272e-62
6.80545e-70
1.20959e-65
6.63676e-67
2.9642e-70
3.18517e-74
1.46155e-78
1.28784e-74
5.49918e-77
1.46439e-79
3.04795e-82
0.0951415
0.00476522
0.000163855
4.32386e-06
1.79623e-07
1.8848e-10
1.21152e-13
5.59872e-17
2.19794e-20
8.26431e-24
2.12384e-27
2.48523e-31
1.26781e-35
5.0642e-40
3.24132e-44
2.6353e-48
7.5716e-55
-6.13943e-80
6.1233e-77
1.98487e-73
4.65123e-76
8.00254e-80
3.602e-84
8.35652e-78
3.36406e-80
8.6328e-83
1.63674e-85
0.0951584
0.00476927
0.000164436
4.37075e-06
1.84782e-07
2.05376e-10
1.43483e-13
7.18134e-17
2.88204e-20
9.94891e-24
2.95508e-27
7.38952e-31
1.50637e-34
2.43062e-38
2.83147e-42
1.83671e-46
6.23115e-53
-6.75527e-88
3.13634e-85
1.90803e-80
2.67911e-82
8.7902e-86
7.12957e-87
4.18849e-81
1.54847e-83
3.49056e-86
8.45476e-89
0.0951754
0.00477151
0.00016474
4.39641e-06
1.87757e-07
2.15308e-10
1.56409e-13
8.08175e-17
3.22241e-20
1.04055e-23
2.73393e-27
5.73149e-31
9.35976e-35
1.14787e-38
9.78444e-43
9.84981e-47
9.87425e-55
-5.62401e-97
9.87763e-89
1.05515e-87
7.0136e-89
4.7888e-92
1.65022e-87
-1.09839e-83
-1.07342e-83
1.74113e-84
1.55536e-85
0.0951806
0.00477242
0.000164856
4.4059e-06
1.89038e-07
2.1976e-10
1.61731e-13
8.39725e-17
3.30292e-20
1.03076e-23
2.60212e-27
5.31234e-31
8.64215e-35
1.08549e-38
1.00138e-42
1.26592e-46
9.02884e-54
-2.68412e-66
4.24339e-72
-6.01743e-74
6.54328e-83
4.92118e-80
3.39023e-84
8.13558e-91
3.16185e-91
9.23979e-84
-7.4588e-78
-2.03881e-77
-3.06898e-79
4.57361e-80
0.0951824
0.00477161
0.000164805
4.40491e-06
1.89221e-07
2.20711e-10
1.62498e-13
8.37557e-17
3.23162e-20
9.77044e-24
2.37888e-27
4.72402e-31
7.69536e-35
1.02993e-38
1.13968e-42
1.07144e-46
9.3225e-51
8.58243e-55
8.17903e-59
6.78239e-63
4.56742e-67
2.43648e-71
9.81483e-76
2.85638e-80
5.90936e-85
1.21845e-80
-7.19005e-73
-3.84327e-73
-2.5783e-75
3.78966e-76
0.0951916
0.00477071
0.000164663
4.39707e-06
1.88796e-07
2.19708e-10
1.60885e-13
8.20032e-17
3.10584e-20
9.15613e-24
2.16642e-27
4.19654e-31
6.75158e-35
9.14076e-39
1.06312e-42
1.10076e-46
1.06492e-50
9.86583e-55
8.47758e-59
6.46296e-63
4.23703e-67
-1.23622e-71
-2.36974e-73
-1.43534e-75
-7.88742e-78
2.96916e-75
-1.26925e-68
-4.03838e-69
-6.67921e-72
2.65729e-72
0.0951947
0.00476955
0.000164492
4.38575e-06
1.87929e-07
2.17711e-10
1.58167e-13
7.97107e-17
2.97306e-20
8.59935e-24
1.99367e-27
3.79498e-31
6.0422e-35
8.19296e-39
9.64394e-43
9.20971e-47
-5.67171e-50
-4.422e-52
-2.7911e-54
-1.66427e-56
-9.56428e-59
-5.57813e-61
-3.28769e-63
-1.91684e-65
-1.05875e-67
1.18553e-69
-2.92999e-63
-9.92914e-65
2.1506e-67
2.95883e-68
0.0951975
0.00476781
0.000164229
4.36755e-06
1.86558e-07
2.1436e-10
1.54126e-13
7.67607e-17
2.82305e-20
7.9809e-24
1.18037e-27
-6.03973e-30
-5.83784e-32
-5.076e-34
-4.22145e-36
-3.33209e-38
-2.53305e-40
-1.84487e-42
-1.28977e-44
-8.69465e-47
-5.66666e-49
-3.62436e-51
-2.2539e-53
-1.37208e-55
-8.03534e-58
-4.56031e-60
-1.6316e-57
-4.9202e-60
1.80523e-62
4.47405e-64
0.0951995
0.00476652
0.000163949
4.34094e-06
9.41638e-08
1.7385e-09
2.80631e-11
4.03938e-13
5.26451e-15
6.28829e-17
6.95056e-19
7.16756e-21
6.94367e-23
6.35982e-25
5.54118e-27
4.61858e-29
3.70024e-31
2.85843e-33
2.13159e-35
1.53382e-37
1.06439e-39
7.11812e-42
4.58834e-44
2.85156e-46
1.70996e-48
9.89574e-51
5.52977e-53
2.98443e-55
1.55755e-57
7.84841e-60
0.0952014
0.00476494
0.000163707
4.32362e-06
9.34299e-08
1.71818e-09
2.76253e-11
3.96093e-13
5.14299e-15
6.12131e-17
6.74453e-19
6.93665e-21
6.70548e-23
6.13145e-25
5.3327e-27
4.43368e-29
3.53822e-31
2.71743e-33
2.01143e-35
1.43571e-37
9.88121e-40
6.55567e-42
4.19415e-44
2.58777e-46
1.5404e-48
8.85128e-51
4.91123e-53
2.63224e-55
1.3643e-57
6.82758e-60
0.0952023
0.00476398
0.000163574
4.31486e-06
9.30602e-08
1.70708e-09
2.73681e-11
3.91165e-13
5.06129e-15
6.00122e-17
6.58639e-19
6.74445e-21
6.49172e-23
5.90769e-25
5.11158e-27
4.22345e-29
3.34498e-31
2.5465e-33
1.8666e-35
1.31851e-37
8.97761e-40
5.89408e-42
3.73148e-44
2.27882e-46
1.34317e-48
7.64179e-51
4.19931e-53
2.22899e-55
1.14441e-57
5.67725e-60
0.0952028
0.00476353
0.000163513
4.31084e-06
9.28897e-08
1.70196e-09
2.72503e-11
3.88958e-13
5.0257e-15
5.95053e-17
6.5206e-19
6.66816e-21
6.40725e-23
5.82085e-25
5.02492e-27
4.14089e-29
3.26898e-31
2.47881e-33
1.80877e-35
1.27132e-37
8.61363e-40
5.62631e-42
3.54472e-44
2.15457e-46
1.26382e-48
7.15954e-51
3.91694e-53
2.0706e-55
1.05899e-57
5.23491e-60
0.0951813
0.0047337
0.000160412
4.14973e-06
8.73088e-08
1.55606e-09
2.41705e-11
3.3414e-13
4.17801e-15
4.78592e-17
5.07516e-19
5.02575e-21
4.68179e-23
4.12882e-25
3.46583e-27
2.78185e-29
2.14292e-31
1.58858e-33
1.13538e-35
7.83123e-38
5.21633e-40
3.35565e-42
2.08496e-44
1.25126e-46
7.25399e-49
4.06334e-51
2.1995e-53
1.15121e-55
5.83366e-58
2.86118e-60
0.0951814
0.00473376
0.000160423
4.15066e-06
8.7355e-08
1.55762e-09
2.42103e-11
3.34956e-13
4.19198e-15
4.80679e-17
5.10301e-19
5.05953e-21
4.71984e-23
4.16925e-25
3.50689e-27
2.8221e-29
2.18105e-31
1.62331e-33
1.16558e-35
8.08088e-38
5.41143e-40
3.50036e-42
2.18707e-44
1.31962e-46
7.68954e-49
4.32823e-51
2.35359e-53
1.23695e-55
6.29179e-58
3.09655e-60
0.0951814
0.00473392
0.000160448
4.15259e-06
8.74493e-08
1.56084e-09
2.42924e-11
3.36633e-13
4.22102e-15
4.85072e-17
5.16242e-19
5.13257e-21
4.80289e-23
4.25804e-25
3.59761e-27
2.91135e-29
2.26586e-31
1.70084e-33
1.23322e-35
8.64123e-38
5.85096e-40
3.82744e-42
2.41862e-44
1.4755e-46
8.68987e-49
4.94039e-51
2.71232e-53
1.43836e-55
7.37809e-58
3.65993e-60
0.0951816
0.00473407
0.000160475
4.15505e-06
8.75803e-08
1.56487e-09
2.43969e-11
3.38826e-13
4.25948e-15
4.90884e-17
5.24009e-19
5.22564e-21
4.90509e-23
4.36317e-25
3.69579e-27
2.87021e-29
2.15605e-31
1.61752e-33
1.18327e-35
8.37953e-38
5.73788e-40
3.79626e-42
2.42579e-44
1.49603e-46
8.89983e-49
5.10529e-51
2.82488e-53
1.50832e-55
7.78166e-58
3.88038e-60
0.0951818
0.00473411
0.000160482
4.15722e-06
1.72873e-07
1.88684e-10
1.27394e-13
5.88616e-17
1.70978e-21
-3.20372e-22
-4.36697e-24
-5.02606e-26
-5.16496e-28
-4.88112e-30
-5.94244e-32
-2.08665e-29
-1.58438e-31
-2.76098e-34
-1.92956e-37
-7.40757e-41
-2.58364e-44
-5.69607e-47
-3.44299e-49
4.52204e-51
2.41191e-52
2.53547e-54
5.48998e-57
4.78181e-59
3.42449e-61
2.13853e-63
0.0951811
0.00473409
0.000160494
4.15907e-06
1.73175e-07
1.89902e-10
1.29066e-13
6.0723e-17
2.1223e-20
5.78917e-24
1.27733e-27
2.34046e-31
3.54265e-35
-2.5511e-35
-6.8253e-27
-8.74226e-24
-5.73414e-26
-8.83719e-29
-5.74777e-32
-2.15083e-35
-5.48544e-39
-1.03316e-42
-1.47491e-46
-1.66449e-50
-1.65125e-54
-1.43969e-58
-1.23488e-57
-6.91002e-60
-3.78054e-62
-1.95058e-64
0.0951807
0.00473386
0.000160479
4.15921e-06
1.73338e-07
1.90802e-10
1.30573e-13
6.2084e-17
2.20192e-20
6.11901e-24
1.3788e-27
2.5817e-31
4.09381e-35
-3.60902e-30
-1.18855e-21
-1.47147e-18
-7.28114e-21
-9.09717e-24
-5.36936e-27
-1.98812e-30
-5.35016e-34
-1.11157e-37
-1.78775e-41
-2.43085e-45
-2.862e-49
-2.91701e-53
-2.08134e-52
-9.74411e-55
-4.65632e-57
-2.14418e-59
0.0951789
0.00473317
0.000160403
4.1556e-06
1.7322e-07
1.91139e-10
1.31645e-13
6.3347e-17
2.29015e-20
6.53294e-24
1.51836e-27
2.93409e-31
-5.6964e-35
-1.92813e-25
-8.37998e-17
-9.1415e-14
-2.44635e-16
-2.12274e-19
-1.18333e-22
-4.79065e-26
-1.50765e-29
-3.81039e-33
-7.82836e-37
-1.34542e-40
-1.95116e-44
-2.38065e-48
-4.28859e-49
-2.01028e-51
-9.54305e-54
-4.3599e-56
0.0951752
0.0047317
0.000160226
4.14541e-06
1.72602e-07
1.90396e-10
1.3172e-13
6.42082e-17
2.37978e-20
7.04989e-24
1.71685e-27
3.48293e-31
-1.51481e-30
-3.78628e-21
-2.34725e-12
-1.67507e-09
-7.50856e-13
1.82957e-17
4.95592e-21
9.18962e-25
1.0275e-30
2.82011e-36
-1.4557e-40
-9.81174e-43
-3.84045e-46
-7.21186e-50
-6.77577e-52
-2.76411e-54
-1.24467e-56
-5.57413e-59
0.0951698
0.00472904
0.000159896
4.1248e-06
1.71151e-07
1.87665e-10
1.29721e-13
6.39358e-17
2.44414e-20
7.64188e-24
1.99617e-27
4.3607e-31
-8.33644e-27
-2.8823e-17
-3.02321e-08
-0.000145313
-1.00207e-07
3.25039e-22
-4.224e-31
-7.59803e-34
2.47937e-44
-3.18656e-45
-1.48977e-50
-4.36491e-52
-4.15424e-53
-3.45052e-56
-2.34528e-55
-1.32899e-57
-6.97922e-60
-3.38179e-62
0.0951617
0.00472477
0.000159345
4.08918e-06
1.68423e-07
1.81666e-10
1.2388e-13
6.11136e-17
2.41536e-20
8.14197e-24
2.36049e-27
5.77166e-31
-1.36044e-23
-1.13851e-14
8.91292e-07
225.014
-0.0178361
-1.83927e-60
-2.70551e-55
-1.08229e-60
-3.05811e-62
-2.25962e-62
-1.12961e-63
-4.10265e-59
-3.37068e-61
-2.28704e-63
-1.28586e-65
0.0951498
0.00471873
0.000158545
4.03559e-06
1.64064e-07
1.71041e-10
1.11921e-13
5.33759e-17
2.1254e-20
7.96332e-24
2.71212e-27
6.83443e-31
-2.11065e-27
-3.24822e-18
5.50461e-10
0.124388
-5.95201e-06
1.30961e-66
3.66636e-62
5.90015e-63
-1.11988e-65
-1.36456e-68
-3.49826e-69
-3.7701e-64
-3.11519e-65
-3.85956e-67
-3.0814e-69
0.0951388
0.00471139
0.000157565
3.96761e-06
1.58214e-07
1.55526e-10
9.23392e-14
7.56665e-17
1.10361e-22
3.18147e-28
1.36124e-31
2.63758e-35
2.87012e-30
-2.31877e-20
-5.44176e-11
5.34794e-05
-1.10775e-09
-9.70306e-66
2.57873e-53
3.88411e-56
3.28845e-60
1.12278e-64
2.28805e-69
9.98166e-68
-1.33579e-70
-9.53642e-72
-3.31592e-73
0.0951264
0.00470448
0.000156629
3.90139e-06
1.52211e-07
1.38607e-10
6.95715e-14
3.68922e-17
-2.46765e-36
-2.29938e-21
-1.35429e-14
-1.05472e-11
-7.35967e-15
9.7113e-30
-3.88071e-36
-1.03507e-40
1.74792e-48
5.94704e-46
6.80123e-50
3.69661e-54
1.215e-58
2.65331e-63
7.01074e-64
9.64135e-67
1.39592e-69
2.04709e-72
0.0951193
0.00470026
0.000156054
3.86059e-06
1.48266e-07
1.27283e-10
5.58819e-14
2.00915e-17
-2.64905e-30
-2.96159e-21
-8.38321e-17
6.93253e-16
6.97806e-20
6.07869e-24
5.6007e-28
3.17483e-32
1.23853e-36
4.95881e-41
9.54195e-45
6.17343e-49
2.21961e-53
5.27473e-58
5.35081e-61
8.38991e-64
1.32851e-66
2.02159e-69
0.0951196
0.00470026
0.000156049
3.86036e-06
1.47834e-07
1.25254e-10
5.34919e-14
1.78175e-17
-3.55863e-35
-5.88392e-27
-7.12963e-23
5.63271e-22
1.07082e-25
1.58352e-29
2.11605e-33
2.25257e-37
1.69627e-41
1.14323e-45
7.74984e-50
1.31439e-53
1.24663e-57
5.19971e-62
1.49993e-64
3.19229e-67
6.2227e-70
1.09417e-72
0.0951265
0.0047044
0.000156616
3.90064e-06
1.51032e-07
1.32772e-10
6.14765e-14
2.44064e-17
-4.98783e-41
-2.64715e-33
-8.24144e-33
9.4308e-31
-5.08825e-32
-3.52936e-38
-3.53169e-42
-1.6648e-42
-2.69299e-46
7.99251e-51
1.36191e-54
1.39427e-58
8.35403e-63
3.03745e-67
3.92646e-68
1.3056e-70
3.07021e-73
5.90778e-76
0.0951374
0.00471121
0.000157546
3.96642e-06
1.56728e-07
1.47972e-10
8.09486e-14
5.25506e-17
2.02542e-24
2.80287e-38
7.86733e-45
2.13305e-44
-1.39856e-51
-5.64201e-41
-6.5341e-43
2.85003e-41
1.60072e-46
9.99153e-49
3.59803e-52
-8.96268e-54
8.80741e-61
1.0341e-57
1.70835e-60
3.41118e-64
2.66007e-68
1.07248e-72
1.56117e-71
6.04431e-74
1.56379e-76
3.13647e-79
0.0951506
0.00471855
0.000158524
4.03424e-06
1.6273e-07
1.64608e-10
1.03159e-13
4.66214e-17
1.75564e-20
6.43831e-24
1.4079e-27
1.00584e-31
2.1635e-36
4.86024e-41
6.31433e-45
9.46703e-49
1.61738e-55
7.51119e-74
1.7329e-67
4.03083e-67
2.95409e-70
3.47132e-74
1.61027e-78
6.45081e-75
2.4979e-77
6.42578e-80
1.1848e-82
0.0951617
0.00472466
0.000159324
4.08785e-06
1.67417e-07
1.7714e-10
1.18409e-13
5.76425e-17
2.29875e-20
8.10865e-24
2.57266e-27
7.13303e-31
1.64429e-34
3.06538e-38
4.28304e-42
3.3359e-46
1.14272e-52
-9.15376e-81
1.16835e-77
2.16535e-74
9.19312e-77
1.89778e-80
7.47981e-85
1.83241e-78
6.66917e-81
1.91672e-83
1.11412e-85
0.0951731
0.0047292
0.000159879
4.1236e-06
1.70448e-07
1.84759e-10
1.26633e-13
6.23685e-17
2.41725e-20
7.80605e-24
2.13005e-27
4.87055e-31
9.23536e-35
1.41996e-38
1.64137e-42
2.26025e-46
1.88256e-54
-9.96948e-90
3.14406e-87
2.72004e-82
8.05835e-84
3.38542e-87
1.80045e-85
8.58138e-80
3.53279e-79
2.11737e-80
5.7012e-82
0.0951714
0.00473161
0.000160214
4.14416e-06
1.7214e-07
1.88566e-10
1.30047e-13
6.35657e-17
2.3843e-20
7.21649e-24
1.80796e-27
3.77701e-31
6.57377e-35
9.45895e-39
1.10483e-42
1.99757e-46
2.72526e-53
1.26082e-66
6.4e-72
-2.78915e-74
1.4243e-84
8.90925e-80
-1.22981e-85
3.94419e-88
1.17515e-92
4.74778e-84
2.54663e-75
3.7142e-75
1.48087e-76
2.85515e-78
0.0951792
0.00473264
0.000160382
4.15462e-06
1.7288e-07
1.89999e-10
1.3072e-13
6.30995e-17
2.30091e-20
6.65551e-24
1.57364e-27
3.0933e-31
5.10243e-35
7.11779e-39
8.49942e-43
8.99759e-47
9.11527e-51
9.90464e-55
1.12481e-58
1.07424e-62
7.73917e-67
4.13474e-71
1.66312e-75
5.13079e-80
1.24924e-84
-4.71827e-80
3.18471e-71
1.65651e-71
5.30348e-73
9.07731e-75
0.0951806
0.00473374
0.000160455
4.15779e-06
1.73088e-07
1.90048e-10
1.30023e-13
6.19757e-17
2.21064e-20
6.19484e-24
1.40936e-27
2.66343e-31
4.24994e-35
5.81524e-39
6.96356e-43
7.53102e-47
7.70339e-51
7.73593e-55
7.50021e-59
6.75876e-63
5.51463e-67
1.69685e-71
-1.48968e-73
-9.18637e-76
-1.75806e-77
-1.33705e-75
2.67043e-67
7.59757e-68
1.88241e-69
2.76461e-71
0.0951815
0.004734
0.000160479
4.15803e-06
1.72994e-07
1.89367e-10
1.28741e-13
6.06753e-17
2.12785e-20
5.83239e-24
1.29396e-27
2.38297e-31
3.71953e-35
5.01206e-39
5.94498e-43
5.72913e-47
-3.78283e-50
-2.86459e-52
-1.7736e-54
-1.05268e-56
-5.95694e-59
-3.41869e-61
-2.00495e-63
-1.15166e-65
-6.38225e-68
-3.86255e-70
3.6766e-63
5.938e-64
1.02919e-65
1.17573e-67