/*--------------------------------*- C++ -*----------------------------------*\
  =========                 |
  \\      /  F ield         | OpenFOAM: The Open Source CFD Toolbox
   \\    /   O peration     | Website:  https://openfoam.org
    \\  /    A nd           | Version:  10
     \\/     M anipulation  |
\*---------------------------------------------------------------------------*/
FoamFile
{
    format      ascii;
    class       volScalarField;
    location    "4";
    object      T;
}
// * * * * * * * * * * * * * * * * * * * * * * * * * * * * * * * * * * * * * //

dimensions      [0 0 0 1 0 0 0];

internalField   nonuniform List<scalar> 
96305
(
0.550758
0.189488
0.0461651
0.00859997
0.00128896
0.000161159
1.7259e-05
1.61506e-06
1.34162e-07
1.0022e-08
6.80517e-10
4.23879e-11
2.44125e-12
1.30923e-13
6.57952e-15
3.11573e-16
1.39679e-17
5.94936e-19
2.4135e-20
9.33882e-22
3.44974e-23
1.21692e-24
4.1002e-26
1.31961e-27
4.05779e-29
1.19418e-30
3.36305e-32
9.06219e-34
2.34034e-35
5.77836e-37
0.550776
0.189479
0.0461545
0.00859594
0.00128807
0.000161035
1.72457e-05
1.61368e-06
1.34021e-07
1.00082e-08
6.79269e-10
4.22826e-11
2.43317e-12
1.30367e-13
6.54585e-15
3.09801e-16
1.38877e-17
5.9185e-19
2.4036e-20
9.31419e-22
3.44644e-23
1.21792e-24
4.1111e-26
1.32568e-27
4.08552e-29
1.20501e-30
3.40128e-32
9.18058e-34
2.37333e-35
5.85965e-37
0.55079
0.189464
0.0461419
0.00859198
0.00128735
0.000160972
1.72426e-05
1.61346e-06
1.34003e-07
1.00068e-08
6.79023e-10
4.22432e-11
2.42853e-12
1.29956e-13
6.51754e-15
3.08289e-16
1.38277e-17
5.90396e-19
2.40476e-20
9.35099e-22
3.47214e-23
1.23074e-24
4.16437e-26
1.34494e-27
4.1446e-29
1.21988e-30
3.43419e-32
9.23812e-34
2.3776e-35
5.83241e-37
0.550814
0.18938
0.0460656
0.00856197
0.00128202
0.000159938
1.70868e-05
1.59418e-06
1.32037e-07
9.83607e-09
6.65926e-10
4.13295e-11
2.36977e-12
1.26491e-13
6.33442e-15
2.9996e-16
1.35265e-17
5.83647e-19
2.41416e-20
9.57025e-22
3.63277e-23
1.31938e-24
4.58373e-26
1.52323e-27
4.83775e-29
1.46925e-30
4.25463e-32
1.16822e-33
3.05466e-35
7.59425e-37
0.550997
0.18921
0.0459241
0.00843188
0.00193198
5.22314e-05
8.64427e-07
1.01566e-08
1.10809e-10
2.36141e-12
1.1126e-13
5.96083e-15
3.00513e-16
1.40071e-17
6.03693e-19
2.40032e-20
8.69948e-22
2.78869e-23
7.25199e-25
1.02734e-26
-3.85678e-28
-4.56701e-29
5.8446e-29
6.03794e-30
2.97879e-31
1.13708e-32
1.21924e-34
4.96261e-36
1.68688e-37
5.02691e-39
0.551023
0.189113
0.0458273
0.0083975
0.00192258
5.27725e-05
8.97768e-07
1.0741e-08
9.7987e-11
7.09695e-13
4.18646e-15
2.04352e-17
8.36761e-20
2.92279e-22
8.95119e-25
2.57075e-27
8.43551e-30
-7.31878e-33
-5.00173e-33
-3.44442e-34
-1.81362e-35
-8.16493e-37
1.6187e-34
8.37106e-35
8.88842e-36
4.9962e-37
2.40565e-37
1.53112e-38
6.58389e-40
2.25235e-41
0.551057
0.189058
0.045767
0.00836977
0.00191124
5.21856e-05
8.81912e-07
1.04557e-08
9.47023e-11
6.80999e-13
3.96858e-15
1.89265e-17
7.43367e-20
2.4307e-22
6.79283e-25
1.71246e-27
4.11655e-30
9.25418e-33
1.85151e-35
3.34838e-38
5.70463e-41
1.04176e-43
2.44607e-41
4.50078e-40
1.47873e-40
1.57875e-41
4.78461e-40
3.84374e-41
1.88226e-42
6.79235e-44
0.551094
0.188979
0.0456741
0.00832488
0.00189146
5.09317e-05
8.44247e-07
9.80571e-09
8.71539e-11
6.15517e-13
3.50636e-15
1.61305e-17
5.96216e-20
1.75761e-22
4.09572e-25
7.33964e-28
1.13865e-30
3.11319e-33
1.61933e-35
7.24608e-38
5.8532e-40
2.4071e-42
6.29935e-45
1.21317e-47
5.89064e-47
4.98526e-47
7.97014e-43
7.71614e-44
4.26434e-45
1.6295e-46
0.551141
0.188851
0.0455269
0.00825135
0.00185765
4.86621e-05
7.75653e-07
8.63306e-09
7.38208e-11
5.05341e-13
2.7846e-15
1.19503e-17
3.72558e-20
7.50573e-23
8.11452e-26
6.35091e-29
-2.0907e-32
-5.10943e-35
-3.01994e-37
-7.99013e-40
-1.98537e-42
2.56292e-46
1.44054e-48
1.15405e-49
1.01767e-51
5.92515e-52
1.91174e-45
1.90197e-46
1.05394e-47
3.7946e-49
0.55119
0.188653
0.0452984
0.00813432
0.00180209
4.48253e-05
6.61089e-07
6.72945e-09
5.29838e-11
3.26008e-13
1.4104e-15
3.76546e-18
5.71835e-21
5.48987e-24
5.29245e-27
-1.3987e-29
1.02015e-34
2.53323e-41
1.14814e-44
1.3469e-49
-7.94689e-54
1.07179e-55
1.60651e-57
9.88186e-56
1.86412e-56
-2.87666e-55
4.51881e-48
4.16576e-49
2.17682e-50
6.40288e-52
0.551252
0.188364
0.0449637
0.00795984
0.00171685
3.8875e-05
4.91218e-07
4.10298e-09
2.487e-11
1.12425e-13
4.6977e-16
2.20183e-18
1.02708e-20
3.45668e-23
6.10183e-26
-4.87526e-29
5.65026e-34
-1.66578e-73
1.5599e-64
2.53027e-66
2.48394e-63
1.01261e-59
5.55909e-56
4.53107e-53
1.05742e-53
3.55984e-54
1.23681e-56
0.551333
0.187984
0.0445184
0.00772342
0.00159758
3.07067e-05
2.84635e-07
1.44024e-09
6.12103e-12
1.54845e-13
3.97749e-15
5.24601e-17
4.16038e-19
2.03252e-21
4.58518e-24
-7.37092e-29
1.12776e-33
-9.4578e-83
2.01969e-73
-5.33678e-71
-2.27115e-67
-8.58276e-64
-2.8864e-60
3.41492e-57
6.33954e-58
8.35724e-59
1.6777e-59
0.551424
0.187557
0.0440064
0.00744773
0.00145341
2.14165e-05
1.01563e-07
1.18085e-10
1.8092e-13
9.46752e-16
9.50993e-19
7.37649e-19
3.25022e-21
4.94288e-24
2.97532e-26
-3.01841e-31
2.95656e-35
-7.44883e-82
4.07597e-69
4.07081e-68
6.73599e-70
4.53888e-68
3.96674e-63
1.84849e-56
2.73121e-57
2.33978e-58
1.55828e-59
0.551519
0.187173
0.0435393
0.00719407
0.00131513
1.35581e-05
1.39532e-08
5.53401e-12
-1.28445e-33
6.65315e-32
1.62111e-29
-8.26714e-34
1.26703e-38
2.50192e-50
3.47981e-57
9.02022e-58
-2.31112e-63
2.70951e-60
1.4434e-62
1.12417e-65
5.18796e-69
-1.05371e-64
3.32342e-57
4.97163e-58
4.16588e-59
2.86943e-60
0.551568
0.186939
0.0432564
0.00704056
0.00122547
9.25878e-06
1.51346e-10
6.49377e-12
2.75034e-47
7.95838e-36
3.64566e-33
2.36417e-36
3.19109e-39
8.46272e-42
1.61103e-44
2.07016e-47
1.82898e-50
1.2602e-53
6.82994e-57
2.84107e-60
9.04112e-64
3.71145e-68
2.89362e-60
8.32596e-61
1.09746e-61
1.47718e-62
0.551568
0.186941
0.0432563
0.0070403
0.00121399
8.47064e-06
1.34614e-10
5.29538e-12
1.90887e-47
5.58866e-38
2.59976e-35
5.44228e-38
7.43701e-41
2.19336e-43
4.47481e-46
6.74184e-49
8.06576e-52
7.83629e-55
6.25959e-58
4.03225e-61
2.04273e-64
-2.74875e-67
1.9356e-60
5.24375e-61
6.0171e-62
8.28384e-63
0.551517
0.187169
0.0435364
0.00719278
0.00128471
1.10534e-05
1.05523e-09
8.68832e-12
1.61188e-47
1.80643e-34
2.44263e-31
9.12501e-35
1.91778e-39
7.98532e-44
-1.61185e-48
1.9799e-49
4.39949e-53
4.15157e-57
9.3898e-60
8.54539e-63
4.44004e-66
-1.30408e-64
2.78129e-57
4.04617e-58
3.05509e-59
2.24173e-60
0.551426
0.187553
0.0440024
0.0074457
0.00141477
1.74123e-05
4.5829e-08
7.3098e-13
8.62779e-16
9.53782e-22
1.21886e-26
2.46166e-27
7.60689e-34
8.93981e-28
7.24785e-28
-1.11218e-32
2.5396e-38
8.39609e-54
9.59508e-61
5.72245e-60
-7.91397e-67
5.85092e-67
6.73766e-66
6.18462e-68
6.18299e-71
-7.96575e-64
2.69948e-56
5.09279e-57
5.28016e-58
5.07101e-59
0.551332
0.187978
0.0445125
0.00772064
0.00156183
2.6414e-05
1.86338e-07
5.69731e-10
7.06824e-12
3.385e-13
5.5236e-15
3.95073e-17
1.49247e-19
3.89406e-22
7.52065e-25
-4.34447e-30
6.15099e-35
3.26796e-81
-1.11198e-66
9.61555e-72
3.78019e-70
7.33016e-66
2.07519e-61
1.19837e-56
3.33318e-57
4.6532e-58
5.22416e-59
0.551254
0.188356
0.0449574
0.00795651
0.00168936
3.53129e-05
3.90556e-07
2.67708e-09
1.29489e-11
7.13035e-14
7.31073e-16
1.24078e-17
1.20434e-19
5.80261e-22
1.23251e-24
-8.96844e-29
1.29203e-33
2.53879e-74
-2.48366e-61
3.13595e-66
1.61012e-69
1.36485e-65
1.32934e-61
1.91316e-57
7.34841e-58
1.21287e-58
1.5473e-59
0.551187
0.18864
0.0452877
0.00813027
0.00178249
4.22471e-05
5.81249e-07
5.44185e-09
3.87336e-11
1.99772e-13
6.91343e-16
1.72312e-18
3.51364e-21
6.11397e-24
8.46988e-27
-1.6884e-29
2.4009e-34
-2.11023e-67
3.7179e-55
4.54315e-57
-9.57087e-64
-4.10655e-65
-2.07756e-61
2.69634e-58
5.1942e-57
3.8427e-57
1.24895e-57
0.551178
0.18886
0.045524
0.0082483
0.00184431
4.69257e-05
7.20386e-07
7.68793e-09
6.32294e-11
4.16965e-13
2.13099e-15
7.66962e-18
1.7041e-20
2.00536e-23
1.32579e-26
-2.84749e-29
2.48837e-33
6.9931e-40
5.41556e-43
6.10333e-48
-6.67308e-49
1.86732e-49
1.78718e-51
4.21524e-55
8.06616e-60
-1.74347e-56
1.69952e-53
2.26828e-54
1.08768e-53
4.64767e-54
0.551063
0.188975
0.0456679
0.00832098
0.00188243
4.979e-05
8.07924e-07
9.16876e-09
7.96812e-11
5.5068e-13
3.06435e-15
1.36372e-17
4.73685e-20
1.22233e-22
2.14444e-25
2.40969e-28
3.60587e-31
3.28581e-32
3.84089e-34
1.81041e-36
5.36775e-39
1.12506e-41
1.63979e-44
1.57129e-47
9.32631e-51
-3.33584e-54
1.59401e-48
1.7761e-49
1.02275e-48
4.56861e-49
0.551059
0.189039
0.0457566
0.00836587
0.00190469
5.14066e-05
8.57488e-07
1.00256e-08
8.9503e-11
6.33691e-13
3.62119e-15
1.67776e-17
6.31264e-20
1.93931e-22
4.97276e-25
1.10724e-27
2.17988e-30
4.10894e-33
8.70805e-36
2.05672e-38
5.09815e-41
1.16192e-43
2.34488e-46
4.25766e-49
7.11967e-50
-6.2028e-49
1.47549e-43
1.43528e-44
1.1767e-44
1.34227e-45
0.551025
0.189108
0.0458202
0.0083933
0.00191834
5.23305e-05
8.84719e-07
1.04882e-08
9.48476e-11
6.80145e-13
3.95544e-15
1.89023e-17
7.50033e-20
2.50497e-22
7.22427e-25
1.88363e-27
4.72447e-30
1.16539e-32
2.62999e-35
2.32806e-38
-1.29047e-39
-5.55254e-41
-3.87683e-42
6.40981e-42
3.20324e-41
1.03043e-41
1.33724e-38
1.04973e-39
5.52844e-41
2.43582e-42
0.550999
0.189203
0.045917
0.00842811
0.00192421
5.23191e-05
8.82363e-07
1.04346e-08
9.39286e-11
6.70635e-13
3.91314e-15
1.95368e-17
1.09052e-19
1.58578e-21
4.92221e-23
1.56562e-24
4.12304e-26
6.24327e-28
-2.05702e-29
-2.59821e-30
-1.66169e-31
-8.55596e-33
-3.90192e-34
8.13192e-35
7.42722e-35
7.13651e-36
2.7049e-35
1.23294e-36
4.65024e-38
1.56822e-39
0.550816
0.189374
0.0460585
0.00855828
0.0012808
0.000159661
1.70371e-05
1.58688e-06
1.31134e-07
9.73925e-09
6.56827e-10
4.05701e-11
2.31231e-12
1.2256e-13
6.08729e-15
2.85593e-16
1.2744e-17
5.43581e-19
2.21986e-20
8.67268e-22
3.23724e-23
1.15373e-24
3.9259e-26
1.2766e-27
3.97324e-29
1.18543e-30
3.38619e-32
9.23935e-34
2.4134e-35
6.02676e-37
0.550793
0.189459
0.0461346
0.00858817
0.0012861
0.000160678
1.71891e-05
1.60553e-06
1.33021e-07
9.90183e-09
6.69186e-10
4.1424e-11
2.36719e-12
1.25755e-13
6.25335e-15
2.92904e-16
1.29936e-17
5.47932e-19
2.20101e-20
8.42783e-22
3.07601e-23
1.07026e-24
3.55162e-26
1.12534e-27
3.40718e-29
9.86977e-31
2.73791e-32
7.28077e-34
1.85947e-35
4.55759e-37
0.550779
0.189474
0.046148
0.0085923
0.00128685
0.000160746
1.71931e-05
1.60589e-06
1.33055e-07
9.90528e-09
6.69701e-10
4.14823e-11
2.37319e-12
1.26273e-13
6.28975e-15
2.94916e-16
1.30827e-17
5.51052e-19
2.20908e-20
8.44014e-22
3.07544e-23
1.06934e-24
3.55066e-26
1.12698e-27
3.42316e-29
9.9583e-31
2.77781e-32
7.43278e-34
1.91112e-35
4.7273e-37
0.55076
0.189482
0.0461581
0.00859624
0.00128773
0.000160867
1.72062e-05
1.60729e-06
1.33204e-07
9.92017e-09
6.71028e-10
4.16043e-11
2.38258e-12
1.26936e-13
6.33002e-15
2.97157e-16
1.31908e-17
5.55756e-19
2.22792e-20
8.51136e-22
3.10185e-23
1.07916e-24
3.58708e-26
1.14024e-27
3.46903e-29
1.01144e-30
2.82756e-32
7.58531e-34
1.95785e-35
4.86441e-37
0.551326
0.192859
0.0486805
0.00959426
0.00155228
0.000213366
2.55399e-05
2.71214e-06
2.59248e-07
2.25698e-08
1.80689e-09
1.34102e-10
9.2905e-12
6.04391e-13
3.71132e-14
2.1606e-15
1.19674e-16
6.32351e-18
3.1932e-19
1.5425e-20
7.13178e-22
3.15621e-23
1.33701e-24
5.42112e-26
2.10402e-27
7.81942e-29
2.78303e-30
9.49162e-32
3.10692e-33
9.74953e-35
0.551311
0.192864
0.0486926
0.00960116
0.00155462
0.000213916
2.56373e-05
2.72603e-06
2.60929e-07
2.27481e-08
1.82382e-09
1.35569e-10
9.40773e-12
6.13181e-13
3.77376e-14
2.20302e-15
1.22441e-16
6.49639e-18
3.29598e-19
1.60035e-20
7.43928e-22
3.3103e-23
1.40992e-24
5.74679e-26
2.2414e-27
8.36752e-29
2.99091e-30
1.02393e-31
3.36304e-33
1.05852e-34
0.551276
0.192876
0.0487206
0.00961696
0.00155992
0.000215151
2.58544e-05
2.7573e-06
2.64794e-07
2.31694e-08
1.86484e-09
1.39187e-10
9.7005e-12
6.35239e-13
3.93032e-14
2.30889e-15
1.29297e-16
6.92128e-18
3.54685e-19
1.74076e-20
8.18304e-22
3.68264e-23
1.58635e-24
6.53729e-26
2.57688e-27
9.71367e-29
3.50334e-30
1.20925e-31
4.00117e-33
1.26766e-34
0.551208
0.192879
0.0487615
0.00964579
0.00157063
0.000216972
2.60948e-05
2.78504e-06
2.67709e-07
2.34483e-08
1.88907e-09
1.41078e-10
9.83333e-12
6.43752e-13
3.98224e-14
2.34085e-15
1.3139e-16
7.06504e-18
3.64434e-19
1.8031e-20
8.55188e-22
3.88517e-23
1.68985e-24
7.03117e-26
2.7963e-27
1.06227e-28
3.8553e-30
1.33755e-31
4.44446e-33
1.41385e-34
0.551142
0.192852
0.0487992
0.00968503
0.00277541
0.000153674
5.55527e-06
1.4126e-07
2.69222e-09
4.29733e-11
8.10043e-13
2.95433e-14
1.64348e-15
9.64296e-17
5.46335e-18
2.96501e-19
1.54467e-20
7.73978e-22
3.72933e-23
1.72663e-24
7.67466e-26
3.27686e-27
1.34333e-28
5.27996e-30
2.1892e-30
2.73344e-31
5.11511e-33
2.79179e-34
1.25454e-35
4.92565e-37
0.551055
0.192853
0.0488433
0.00971466
0.00279294
0.000155741
5.66852e-06
1.44692e-07
2.726e-09
3.94921e-11
4.53811e-13
4.23673e-15
3.27773e-17
2.14087e-19
1.20433e-21
5.97073e-24
2.68034e-26
1.1527e-28
6.67088e-31
1.17788e-32
4.05135e-34
1.48479e-35
5.27612e-37
1.79896e-38
6.77952e-37
6.8983e-37
4.82618e-36
4.40067e-37
2.62061e-38
1.23517e-39
0.550986
0.19286
0.0488771
0.00973403
0.00280333
0.000157181
5.76769e-06
1.48793e-07
2.8407e-09
4.17976e-11
4.88167e-13
4.62326e-15
3.61036e-17
2.36267e-19
1.32274e-21
6.52663e-24
2.94624e-26
1.24484e-28
4.84698e-31
1.68586e-33
5.15774e-36
1.38581e-38
3.27198e-41
7.27233e-44
3.48126e-43
1.94232e-42
6.45111e-39
7.83684e-40
5.60563e-41
2.9741e-42
0.550907
0.19285
0.0488949
0.00974472
0.00280873
0.000157975
5.83137e-06
1.5194e-07
2.94527e-09
4.42196e-11
5.28165e-13
5.1029e-15
4.03008e-17
2.62712e-19
1.43717e-21
6.82556e-24
2.96994e-26
1.24173e-28
4.89274e-31
1.72093e-33
5.34922e-36
1.49783e-38
3.7965e-41
8.58934e-44
1.7203e-46
2.32442e-47
1.48362e-41
2.07991e-42
1.64909e-43
9.15551e-45
0.550812
0.192814
0.0488889
0.00974251
0.00280648
0.000157756
5.83601e-06
1.53266e-07
3.02049e-09
4.65169e-11
5.72465e-13
5.67444e-15
4.52353e-17
2.86893e-19
1.42401e-21
5.58769e-24
7.53781e-27
7.38232e-31
2.42512e-33
1.01327e-35
1.25041e-39
3.29925e-43
1.70365e-45
1.45845e-46
7.23922e-49
-2.78069e-52
4.58554e-44
6.74576e-45
5.57185e-46
3.04679e-47
0.550694
0.192736
0.0488437
0.00971842
0.0027912
0.000155715
5.72321e-06
1.50295e-07
3.00075e-09
4.74873e-11
6.02804e-13
6.07649e-15
4.74965e-17
2.76317e-19
1.12188e-21
5.75095e-24
1.33278e-28
1.76567e-38
1.91923e-43
1.42983e-44
-6.32834e-51
8.68736e-53
1.86187e-54
3.10922e-54
3.69271e-54
-3.49664e-54
1.11906e-46
1.73544e-47
1.5068e-48
7.89047e-50
0.550554
0.192599
0.0487425
0.00966134
0.00275543
0.00015062
5.39985e-06
1.38969e-07
2.77566e-09
4.53409e-11
6.07851e-13
6.60043e-15
5.71503e-17
3.83833e-19
1.84063e-21
5.0959e-24
4.64078e-28
-1.79908e-65
1.38611e-61
1.70369e-63
5.10028e-62
3.33488e-58
3.1937e-54
4.08123e-50
1.48891e-50
1.80338e-51
1.01454e-52
0.550406
0.192402
0.0485715
0.00956201
0.00269221
0.000141262
4.77743e-06
1.16058e-07
2.30677e-09
4.16152e-11
6.61434e-13
8.22847e-15
7.51238e-17
5.10013e-19
2.55607e-21
7.68412e-24
8.63854e-28
4.04397e-72
2.10801e-70
1.99325e-67
3.25634e-66
2.73351e-62
3.82964e-58
2.39846e-54
4.8257e-55
4.83081e-56
1.45213e-56
0.550271
0.192164
0.0483457
0.00942664
0.00260302
0.000127674
3.86596e-06
1.45013e-07
3.77374e-10
5.78973e-13
2.13782e-16
3.30772e-18
6.08871e-21
5.65467e-23
2.08263e-24
4.5931e-26
1.23803e-29
-8.07446e-75
1.70271e-66
1.4976e-63
2.30463e-64
2.91547e-66
-1.70112e-61
1.13991e-53
1.78734e-54
1.59035e-55
1.01142e-56
0.55017
0.191941
0.0481222
0.00928929
0.00250891
0.000113156
2.91312e-06
7.93785e-08
1.55513e-35
1.8058e-31
4.63743e-28
2.8628e-29
3.95995e-33
-3.77184e-45
2.45532e-52
1.89965e-54
-2.6165e-61
1.39464e-58
5.22306e-61
4.96682e-64
4.03989e-67
-5.57438e-62
3.1149e-54
4.71717e-55
4.03123e-56
2.5885e-57
0.550112
0.191799
0.0479795
0.00920145
0.00244536
0.00010336
2.33158e-06
4.46142e-08
3.15296e-41
1.49658e-34
4.88745e-32
2.12813e-33
8.73847e-37
8.7626e-40
1.04866e-42
8.45503e-46
4.74654e-49
2.3118e-52
1.01947e-55
3.82867e-59
1.16641e-62
-2.28914e-64
8.89725e-57
2.31931e-57
2.91243e-58
3.08247e-59
0.550115
0.191801
0.0479794
0.00920113
0.00243858
0.000101663
2.2301e-06
3.94342e-08
3.13889e-42
9.96745e-37
3.0094e-34
2.27424e-35
1.59643e-38
2.72558e-41
4.82215e-44
7.04598e-47
8.05385e-50
7.22675e-53
5.18772e-56
2.90205e-59
1.21485e-62
-4.61702e-64
8.03553e-57
2.00615e-57
2.30975e-58
2.31199e-59
0.550168
0.191938
0.0481196
0.00928795
0.00249061
0.000108328
2.58495e-06
5.44863e-08
3.83524e-40
1.38304e-32
4.78251e-30
9.57073e-32
8.35284e-36
5.62816e-41
2.55105e-45
2.8228e-48
9.7116e-52
1.30288e-55
1.46737e-58
9.33631e-62
3.67593e-65
-8.18718e-62
3.87302e-54
5.82043e-55
4.71107e-56
2.9665e-57
0.55027
0.192164
0.0483428
0.00942494
0.00258013
0.000121364
3.39667e-06
1.07473e-07
3.5393e-11
3.00259e-21
6.02687e-27
4.8662e-25
6.45144e-36
2.81214e-27
3.13343e-26
3.56475e-28
6.97656e-33
1.06807e-47
3.8101e-56
3.68978e-58
-7.08511e-65
5.06724e-64
7.62118e-63
2.79563e-64
2.26715e-66
-3.71459e-61
2.34667e-53
4.52027e-54
4.72101e-55
3.65021e-56
0.550401
0.192398
0.0485675
0.00955994
0.00267214
0.000135764
4.3696e-06
1.01175e-07
1.87633e-09
3.28173e-11
4.1479e-13
2.50513e-15
6.65497e-18
1.59526e-20
9.12615e-23
4.8011e-25
5.29771e-29
-2.82374e-71
7.26365e-67
1.51155e-66
3.65466e-66
8.23807e-65
1.04442e-59
9.52075e-54
2.44734e-54
3.12822e-55
2.75987e-56
0.550551
0.192596
0.0487383
0.00965923
0.00274121
0.000146844
5.12825e-06
1.28632e-07
2.55739e-09
4.33588e-11
6.29665e-13
7.6433e-15
7.50412e-17
5.78802e-19
3.20165e-21
9.99075e-24
1.08052e-27
-8.94606e-66
5.83249e-61
6.34099e-65
3.76505e-67
4.60995e-63
7.05461e-59
1.83291e-54
5.9043e-55
8.42841e-56
8.6917e-57
0.550706
0.192733
0.048839
0.00971643
0.00278213
0.000153459
5.57477e-06
1.451e-07
2.89495e-09
4.62541e-11
5.9508e-13
6.05868e-15
4.77327e-17
2.81006e-19
1.14995e-21
5.41387e-24
7.86913e-29
1.66568e-60
5.78475e-53
9.50472e-56
-4.40529e-62
-4.59328e-62
-4.36253e-58
4.98111e-55
1.37726e-53
6.43613e-54
1.39758e-54
0.550808
0.192819
0.0488888
0.00974076
0.00280092
0.000156539
5.76656e-06
1.51337e-07
2.99709e-09
4.6657e-11
5.81317e-13
5.79554e-15
4.55849e-17
2.74457e-19
1.20615e-21
6.93319e-24
7.52873e-28
1.34767e-34
1.03847e-40
5.83694e-41
-1.24284e-47
7.26504e-46
4.4897e-48
6.8268e-53
3.64432e-56
-7.60772e-56
1.04096e-51
4.12548e-50
6.69651e-50
2.23254e-50
0.550886
0.192841
0.0488928
0.00974337
0.00280524
0.000157355
5.80483e-06
1.51579e-07
2.9553e-09
4.47654e-11
5.40204e-13
5.25742e-15
4.15019e-17
2.66106e-19
1.39285e-21
6.09827e-24
2.4182e-26
9.9421e-29
4.22462e-31
1.56497e-33
4.69605e-36
1.11211e-38
1.98458e-41
2.55479e-44
2.32957e-47
1.57943e-50
-4.34873e-48
1.26038e-46
1.10055e-46
2.78262e-47
0.550982
0.192851
0.0488716
0.00973203
0.0028014
0.000156898
5.7625e-06
1.49045e-07
2.85876e-09
4.2329e-11
4.97565e-13
4.73179e-15
3.69217e-17
2.39459e-19
1.31675e-21
6.35149e-24
2.81525e-26
1.17677e-28
4.51735e-31
1.52991e-33
4.50933e-36
1.16065e-38
2.62677e-41
5.28575e-44
9.6078e-47
1.81866e-49
-1.3734e-44
2.20013e-43
1.32746e-43
2.72286e-44
0.551055
0.192851
0.0488409
0.00971322
0.00279189
0.000155796
5.6826e-06
1.45493e-07
2.7519e-09
4.00366e-11
4.61746e-13
4.31909e-15
3.33663e-17
2.16714e-19
1.20751e-21
5.92531e-24
2.63765e-26
1.08804e-28
4.14096e-31
1.42661e-33
4.39849e-36
1.26806e-38
5.62037e-41
9.41741e-43
2.6637e-44
3.26091e-45
-4.84213e-40
9.08801e-40
3.01362e-40
4.04042e-41
0.55114
0.19285
0.048797
0.0096836
0.00277616
0.000153826
5.55917e-06
1.40799e-07
2.62891e-09
3.77038e-11
4.28763e-13
3.96304e-15
3.05427e-17
2.08057e-19
1.70514e-21
3.58126e-23
1.4836e-24
6.77377e-26
3.0201e-27
1.29476e-28
5.31998e-30
2.09539e-31
7.90579e-33
2.86393e-34
9.95393e-36
3.29921e-37
-3.8307e-35
8.77669e-36
1.08016e-36
7.62435e-38
0.551206
0.192876
0.0487593
0.0096445
0.00157012
0.000216843
2.60674e-05
2.7803e-06
2.66997e-07
2.33552e-08
1.87823e-09
1.39967e-10
9.73058e-12
6.35028e-13
3.91407e-14
2.29143e-15
1.28045e-16
6.85267e-18
3.51716e-19
1.73077e-20
8.16184e-22
3.68582e-23
1.59426e-24
6.60665e-26
2.62508e-27
1.00031e-28
3.65768e-30
1.28357e-31
4.32834e-33
1.40033e-34
0.551275
0.192873
0.0487178
0.00961557
0.00155941
0.000215013
2.58257e-05
2.7523e-06
2.64062e-07
2.30754e-08
1.8542e-09
1.38119e-10
9.60239e-12
6.26999e-13
3.86629e-14
2.26274e-15
1.26203e-16
6.72635e-18
3.43111e-19
1.6762e-20
7.84274e-22
3.5139e-23
1.50825e-24
6.20279e-26
2.44524e-27
9.24558e-29
3.35417e-30
1.16796e-31
3.90847e-33
1.25496e-34
0.551308
0.192862
0.0486906
0.00959993
0.00155415
0.000213788
2.56097e-05
2.72119e-06
2.60221e-07
2.26579e-08
1.81388e-09
1.34553e-10
9.31604e-12
6.05523e-13
3.71541e-14
2.1615e-15
1.19681e-16
6.32493e-18
3.19605e-19
1.54566e-20
7.1568e-22
3.17396e-23
1.34842e-24
5.49006e-26
2.14338e-27
8.02554e-29
2.88398e-30
9.94715e-32
3.29778e-33
1.04976e-34
0.551323
0.192856
0.0486785
0.00959304
0.0015518
0.000213234
2.55119e-05
2.70732e-06
2.58545e-07
2.24809e-08
1.79698e-09
1.33123e-10
9.20154e-12
5.97074e-13
3.65535e-14
2.12106e-15
1.17071e-16
6.16306e-18
3.10051e-19
1.49218e-20
6.87579e-22
3.0341e-23
1.28288e-24
5.19903e-26
2.02016e-27
7.53224e-29
2.69495e-30
9.25764e-32
3.0575e-33
9.69849e-35
0.550458
0.191517
0.0478136
0.00926778
0.00146746
0.000196616
2.28727e-05
2.35573e-06
2.1812e-07
1.83806e-08
1.42404e-09
1.02302e-10
6.86408e-12
4.32848e-13
2.57925e-14
1.45893e-15
7.86265e-17
4.04862e-18
1.99562e-19
9.42666e-21
4.27046e-22
1.85569e-23
7.73616e-25
3.09451e-26
1.18793e-27
4.37775e-29
1.54905e-30
5.26619e-32
1.72247e-33
5.41854e-35
0.550462
0.191522
0.0478177
0.00926996
0.00146822
0.000196804
2.29084e-05
2.3612e-06
2.18814e-07
1.84573e-08
1.43156e-09
1.02966e-10
6.91821e-12
4.36976e-13
2.6091e-14
1.47958e-15
7.99968e-17
4.13533e-18
2.04761e-19
9.72087e-21
4.42677e-22
1.93397e-23
8.10657e-25
3.25972e-26
1.25762e-27
4.65658e-29
1.65507e-30
5.64947e-32
1.8547e-33
5.85447e-35
0.550467
0.191533
0.0478261
0.00927444
0.00146977
0.000197192
2.29821e-05
2.37243e-06
2.20257e-07
1.86182e-08
1.4475e-09
1.04392e-10
7.03534e-12
4.45954e-13
2.67436e-14
1.52494e-15
8.30176e-17
4.32738e-18
2.1633e-19
1.03777e-20
4.77738e-22
2.1103e-23
8.94438e-25
3.63576e-26
1.41744e-27
5.30007e-29
1.90159e-30
6.54856e-32
2.16774e-33
6.89596e-35
0.55048
0.191548
0.047838
0.00928046
0.00147234
0.000197303
2.29626e-05
2.3684e-06
2.19846e-07
1.85909e-08
1.44656e-09
1.04428e-10
7.0458e-12
4.47259e-13
2.68799e-14
1.5382e-15
8.42168e-17
4.42565e-18
2.23522e-19
1.0849e-20
5.05743e-22
2.26288e-23
9.71485e-25
3.99854e-26
1.57692e-27
5.95746e-29
2.1569e-30
7.48718e-32
2.49535e-33
7.98719e-35
0.550502
0.191572
0.0478518
0.00929048
0.00260211
0.000138107
4.72558e-06
1.13122e-07
2.03655e-09
3.12166e-11
5.93591e-13
2.22955e-14
1.23016e-15
7.0625e-17
3.91203e-18
2.07826e-19
1.0612e-20
5.21857e-22
2.47169e-23
1.1266e-24
4.94056e-26
2.0836e-27
8.45625e-29
1.46479e-29
2.9919e-30
2.05724e-31
3.26955e-33
1.73587e-34
7.70109e-36
3.00911e-37
0.550514
0.191584
0.04786
0.00929548
0.00260664
0.000138875
4.77668e-06
1.14795e-07
2.04271e-09
2.81127e-11
3.09308e-13
2.79158e-15
2.11108e-17
1.36387e-19
7.67835e-22
3.84909e-24
1.76077e-26
7.76951e-29
4.63352e-31
8.21263e-33
2.80371e-34
1.02541e-35
3.64841e-37
2.29738e-36
5.59728e-36
1.04546e-36
3.65438e-36
3.20396e-37
1.87421e-38
8.75727e-40
0.550526
0.191587
0.0478602
0.00929685
0.00260912
0.000139476
4.82756e-06
1.17163e-07
2.11394e-09
2.96144e-11
3.32522e-13
3.06397e-15
2.36079e-17
1.54835e-19
8.82479e-22
4.48965e-24
2.10523e-26
9.3156e-29
3.86246e-31
1.46524e-33
5.03732e-36
1.57213e-38
4.4592e-41
1.15773e-42
1.57232e-41
6.52147e-42
5.69132e-39
6.76956e-40
4.8475e-41
2.6018e-42
0.550534
0.191575
0.047845
0.00929084
0.00260797
0.000139724
4.86475e-06
1.1939e-07
2.19326e-09
3.14994e-11
3.64366e-13
3.46205e-15
2.73986e-17
1.82956e-19
1.04947e-21
5.34659e-24
2.56041e-26
1.21525e-28
5.64312e-31
2.42745e-33
9.44126e-36
3.31531e-38
1.04915e-40
2.97113e-43
9.09864e-46
1.15613e-46
1.38569e-41
1.98264e-42
1.62635e-43
9.48469e-45
0.550539
0.19154
0.0478049
0.00927212
0.00260057
0.000139312
4.87063e-06
1.20973e-07
2.27452e-09
3.3848e-11
4.09314e-13
4.0754e-15
3.36093e-17
2.29979e-19
1.30911e-21
6.31775e-24
1.22606e-26
1.37387e-30
4.76107e-33
1.87278e-35
2.44737e-39
6.5467e-43
3.01372e-45
1.44601e-46
8.50763e-49
3.47936e-51
4.05396e-44
6.33628e-45
5.6199e-46
3.38834e-47
0.550544
0.191469
0.0477271
0.0092333
0.00258277
0.000137678
4.81042e-06
1.20674e-07
2.3339e-09
3.65098e-11
4.71485e-13
5.03501e-15
4.42402e-17
3.15244e-19
1.74619e-21
1.29509e-23
6.01932e-28
1.01675e-37
8.37951e-44
5.91978e-44
-6.83034e-51
4.87463e-52
3.19846e-54
7.86265e-55
1.39668e-54
-2.10362e-54
8.99923e-47
1.59019e-47
1.56699e-48
9.87291e-50
0.55055
0.191351
0.0475955
0.00916544
0.00254902
0.000134015
4.62545e-06
1.16016e-07
2.30872e-09
3.86128e-11
5.48193e-13
6.56163e-15
6.53607e-17
5.26408e-19
3.1275e-21
1.02779e-23
9.09476e-28
-4.53737e-65
5.99645e-61
2.93334e-63
6.64029e-63
7.12062e-59
1.50922e-54
9.71214e-50
2.44705e-50
2.99469e-51
2.10916e-52
0.550555
0.191183
0.0474044
0.00906314
0.00249486
0.000127439
4.2368e-06
1.02639e-07
2.02815e-09
3.6582e-11
5.89367e-13
7.08107e-15
5.70664e-17
3.23728e-19
1.47487e-21
4.69308e-24
6.07374e-28
1.45856e-71
6.67802e-66
9.68906e-62
1.13313e-61
2.04562e-61
6.93497e-57
1.29849e-51
2.31613e-52
2.25768e-53
1.47139e-54
0.550579
0.190982
0.0471724
0.00893402
0.00242209
0.000117716
3.58488e-06
1.35572e-07
3.36825e-10
4.50214e-13
1.17249e-16
9.94328e-19
5.76902e-22
2.05316e-24
5.40291e-25
2.11758e-26
4.5106e-30
-7.48973e-70
8.0656e-60
3.5899e-58
2.7696e-59
2.79526e-61
-5.59331e-59
4.75055e-51
7.61659e-52
6.89107e-53
4.32205e-54
0.550596
0.190796
0.0469527
0.00880865
0.00234729
0.000106993
2.81329e-06
7.3072e-08
6.43869e-37
1.81247e-31
1.01745e-28
5.27765e-30
1.17935e-33
-1.54702e-46
4.50608e-52
3.35382e-55
-1.83522e-61
1.33152e-55
1.56576e-57
6.36624e-60
1.63798e-62
-2.14829e-59
1.60762e-51
2.46265e-52
2.13092e-53
1.3335e-54
0.550608
0.190682
0.0468172
0.00873086
0.00229783
9.96761e-05
2.3314e-06
4.32517e-08
5.66384e-42
3.69751e-35
9.94139e-33
2.06257e-34
7.22896e-38
6.74462e-41
7.12181e-44
4.93671e-47
2.43132e-50
1.04823e-53
4.12993e-57
1.41523e-60
4.05686e-64
-2.03921e-61
9.69624e-54
2.44304e-54
3.01964e-55
2.91929e-56
0.55061
0.190682
0.0468159
0.00873042
0.00229264
9.83365e-05
2.24422e-06
3.89477e-08
3.26702e-44
4.83492e-38
3.10576e-35
1.53936e-36
1.20167e-39
1.86946e-42
2.86947e-45
3.5692e-48
3.33413e-51
2.35684e-54
1.3117e-57
5.73029e-61
1.94278e-64
-3.54225e-61
9.61178e-54
2.33867e-54
2.71763e-55
2.501e-56
0.550596
0.190794
0.0469495
0.00880721
0.00233326
0.000103221
2.52925e-06
5.10627e-08
3.09228e-40
6.13284e-33
1.2157e-30
9.89782e-33
1.45966e-36
9.06099e-42
2.76992e-46
1.91564e-49
8.23586e-53
1.51723e-56
1.91498e-59
4.01632e-62
9.92874e-65
-3.23428e-59
2.35029e-51
3.60304e-52
3.02436e-53
1.83133e-54
0.550574
0.190976
0.0471678
0.00893177
0.00240446
0.000112904
3.19804e-06
9.7688e-08
2.67178e-11
1.61671e-20
2.7988e-27
4.84363e-25
-1.37241e-37
1.16964e-28
7.51584e-27
7.37111e-29
2.35226e-33
2.49081e-48
1.04892e-56
3.94443e-59
-8.13535e-66
3.06955e-57
2.14121e-57
4.56663e-59
3.11453e-61
-1.13284e-58
1.07149e-50
2.01649e-51
2.06978e-52
1.46556e-53
0.550559
0.191177
0.0473994
0.00906058
0.00247921
0.000123382
3.94371e-06
9.08147e-08
1.60026e-09
2.67924e-11
2.88779e-13
1.08692e-15
1.24671e-18
2.24198e-21
3.25614e-23
2.50051e-25
2.02637e-29
-9.8926e-69
4.45665e-65
9.05326e-61
9.62595e-61
3.40999e-62
-5.61629e-59
4.48444e-51
1.03454e-51
1.23146e-52
9.66848e-54
0.55055
0.191348
0.0475903
0.0091629
0.00253757
0.000131221
4.44786e-06
1.10067e-07
2.20046e-09
3.82073e-11
5.87107e-13
7.77204e-15
8.48659e-17
7.47286e-19
4.91705e-21
1.82082e-23
1.97898e-27
-5.43122e-69
8.39581e-64
1.29947e-65
7.15055e-65
1.42947e-62
8.5251e-58
1.17469e-51
3.07099e-52
3.94832e-53
3.62408e-54
0.550559
0.191475
0.0477229
0.00923099
0.00257506
0.000135932
4.71382e-06
1.18152e-07
2.31305e-09
3.72563e-11
5.00824e-13
5.57975e-15
5.10315e-17
3.75008e-19
2.0626e-21
1.30045e-23
1.73348e-28
-3.98039e-63
3.272e-56
1.26891e-56
7.75496e-59
-6.17739e-60
-3.86188e-55
4.66818e-50
3.2947e-50
8.44018e-51
1.20343e-51
0.550524
0.191538
0.047802
0.00926975
0.00259571
0.000138245
4.8207e-06
1.20053e-07
2.28258e-09
3.46588e-11
4.30506e-13
4.40825e-15
3.72072e-17
2.57103e-19
1.42906e-21
1.15956e-23
2.30515e-27
5.85889e-34
2.15215e-40
5.02311e-41
-1.72811e-48
1.60576e-47
6.65873e-49
1.66998e-50
1.84125e-53
-5.01944e-54
1.32922e-46
4.97124e-47
8.73953e-48
9.10952e-49
0.550536
0.191559
0.04784
0.00928899
0.0026045
0.000139081
4.83873e-06
1.19122e-07
2.20648e-09
3.21143e-11
3.77693e-13
3.64922e-15
2.92456e-17
1.95986e-19
1.11124e-21
5.50633e-24
2.53371e-26
1.20225e-28
5.94249e-31
2.49103e-33
7.92986e-36
1.87741e-38
3.34719e-41
4.55413e-44
4.91909e-47
4.16593e-50
1.09426e-43
3.28306e-44
4.75206e-45
4.43392e-46
0.550527
0.191583
0.0478543
0.00929414
0.00260659
0.00013906
4.81298e-06
1.17102e-07
2.12461e-09
3.0008e-11
3.40156e-13
3.16365e-15
2.45373e-17
1.61185e-19
9.14824e-22
4.62401e-24
2.17542e-26
9.88038e-29
4.27306e-31
1.70019e-33
6.12424e-36
1.9903e-38
5.82802e-41
1.53885e-43
3.68232e-46
-5.6481e-48
9.044e-41
2.11969e-41
2.4605e-42
1.99832e-43
0.550516
0.191581
0.0478565
0.0092935
0.00260494
0.000138596
4.76895e-06
1.1481e-07
2.04988e-09
2.83474e-11
3.13622e-13
2.84406e-15
2.15784e-17
1.39516e-19
7.84811e-22
3.93321e-24
1.80212e-26
7.68991e-29
3.04982e-31
1.10857e-33
3.67068e-36
1.15214e-38
5.0659e-41
7.55924e-43
2.11782e-44
-1.98692e-44
1.41234e-37
2.2175e-38
1.87962e-39
1.21453e-40
0.550503
0.19157
0.0478482
0.0092884
0.00260102
0.000137918
4.71524e-06
1.12498e-07
1.98438e-09
2.7034e-11
2.94036e-13
2.62331e-15
1.97293e-17
1.33538e-19
1.1376e-21
2.51675e-23
1.04359e-24
4.70403e-26
2.07309e-27
8.79368e-29
3.58743e-30
1.4054e-31
5.30014e-33
1.92437e-34
6.71155e-36
2.24701e-37
4.19631e-34
3.60129e-35
2.06406e-36
9.91377e-38
0.550481
0.191545
0.0478343
0.00927846
0.00147163
0.000197134
2.29299e-05
2.36319e-06
2.19124e-07
1.85035e-08
1.43708e-09
1.03512e-10
6.96594e-12
4.40867e-13
2.64088e-14
1.50569e-15
8.21235e-17
4.29864e-18
2.16261e-19
1.04536e-20
4.85392e-22
2.16348e-23
9.26047e-25
3.80686e-26
1.50414e-27
5.7148e-29
2.08851e-30
7.34263e-32
2.48576e-33
8.09911e-35
0.550468
0.19153
0.0478223
0.00927233
0.00146904
0.00019701
2.29466e-05
2.36676e-06
2.19484e-07
1.85261e-08
1.43778e-09
1.03478e-10
6.95603e-12
4.39691e-13
2.62844e-14
1.49371e-15
8.10294e-17
4.20844e-18
2.09613e-19
1.00203e-20
4.59809e-22
2.02561e-23
8.57037e-25