/*--------------------------------*- C++ -*----------------------------------*\
  =========                 |
  \\      /  F ield         | OpenFOAM: The Open Source CFD Toolbox
   \\    /   O peration     | Website:  https://openfoam.org
    \\  /    A nd           | Version:  10
     \\/     M anipulation  |
\*---------------------------------------------------------------------------*/
FoamFile
{
    format      ascii;
    class       volScalarField;
    location    "5";
    object      T;
}
// * * * * * * * * * * * * * * * * * * * * * * * * * * * * * * * * * * * * * //

dimensions      [0 0 0 1 0 0 0];

internalField   nonuniform List<scalar> 
96305
(
0.632208
0.261924
0.078221
0.0180011
0.00334575
0.000519807
6.92524e-05
8.06725e-06
8.34513e-07
7.76419e-08
6.56651e-09
5.09418e-10
3.65373e-11
2.43988e-12
1.52651e-13
8.99759e-15
5.01955e-16
2.65996e-17
1.34224e-18
6.45898e-20
2.96665e-21
1.30098e-22
5.44844e-24
2.17924e-25
8.32715e-27
3.04599e-28
1.06646e-29
3.57339e-31
1.1477e-32
3.52399e-34
0.632233
0.261916
0.0782053
0.0179932
0.00334349
0.000519405
6.91985e-05
8.06025e-06
8.3363e-07
7.75357e-08
6.5546e-09
5.0817e-10
3.64182e-11
2.42968e-12
1.5188e-13
8.94708e-15
4.99109e-16
2.64632e-17
1.3368e-18
6.44214e-20
2.96385e-21
1.30204e-22
5.4628e-24
2.18918e-25
8.38458e-27
3.07436e-28
1.07913e-29
3.62288e-31
1.16506e-32
3.5775e-34
0.632253
0.2619
0.0781881
0.0179873
0.00334212
0.000519276
6.91944e-05
8.05991e-06
8.33563e-07
7.75256e-08
6.55213e-09
5.07675e-10
3.63466e-11
2.42182e-12
1.51209e-13
8.90239e-15
4.96884e-16
2.6394e-17
1.33721e-18
6.46643e-20
2.98542e-21
1.31554e-22
5.53284e-24
2.22074e-25
8.50389e-27
3.1106e-28
1.08869e-29
3.64178e-31
1.16561e-32
3.55464e-34
0.632286
0.261785
0.0780569
0.0179221
0.00332815
0.000515743
6.84971e-05
7.94875e-06
8.19145e-07
7.59426e-08
6.39933e-09
4.94327e-10
3.52752e-11
2.34297e-12
1.45972e-13
8.59788e-15
4.8217e-16
2.58704e-17
1.33052e-18
6.55791e-20
3.09493e-21
1.39744e-22
6.03513e-24
2.49272e-25
9.8383e-27
3.71356e-28
1.33656e-29
4.55894e-31
1.48074e-32
4.57224e-34
0.632539
0.261591
0.0778576
0.0176761
0.00494252
0.000202488
5.13231e-06
9.18639e-08
1.39878e-09
3.04758e-11
1.47718e-12
9.52876e-14
5.98884e-15
3.4993e-16
1.89643e-17
9.53018e-19
4.40476e-20
1.83338e-21
6.53962e-23
1.67559e-24
-2.24006e-27
-4.23368e-27
9.56349e-27
1.22789e-27
7.56423e-29
3.5956e-30
4.83393e-32
2.43188e-33
1.02399e-34
3.78174e-36
0.632576
0.261462
0.0776922
0.0176025
0.00491679
0.000204419
5.32647e-06
9.79677e-08
1.37587e-09
1.53529e-11
1.39644e-13
1.05199e-15
6.65529e-18
3.59592e-20
1.70227e-22
2.13308e-20
-5.10005e-19
-8.41257e-20
-3.79674e-21
-5.2656e-23
-3.54902e-25
-1.42039e-27
-4.5007e-30
8.71965e-33
3.4223e-33
2.47276e-34
1.2907e-34
1.01567e-35
5.46747e-37
2.35151e-38
0.632626
0.2614
0.0776005
0.017549
0.00488959
0.000202225
5.23485e-06
9.53909e-08
1.32989e-09
1.47334e-11
1.32403e-13
9.74852e-16
5.92022e-18
2.99908e-20
1.60587e-22
6.65784e-17
-2.18349e-15
-4.06182e-16
-2.50216e-17
-4.60028e-19
-4.8794e-21
-3.52719e-23
-1.48242e-25
-2.81084e-28
-2.48971e-31
-2.1677e-34
5.57135e-32
5.28966e-33
2.95759e-34
1.31466e-35
0.632682
0.261308
0.0774544
0.0174592
0.00484098
0.000197523
5.01666e-06
8.95673e-08
1.22532e-09
1.33318e-11
1.17132e-13
8.32356e-16
4.7626e-18
2.17982e-20
7.41032e-20
9.26658e-14
-4.34762e-12
-8.70882e-13
-5.89843e-14
-1.15923e-15
-1.42512e-17
-1.26838e-19
-8.54468e-22
-4.18129e-24
-1.45137e-26
-3.62129e-29
-3.44107e-31
6.69191e-31
4.82164e-32
2.30674e-33
0.632752
0.261153
0.0772213
0.0173119
0.00475801
0.000189002
4.61833e-06
7.90266e-08
1.03993e-09
1.09641e-11
9.31703e-14
6.1807e-16
2.99113e-18
9.43038e-21
8.59519e-17
5.83948e-11
-7.50182e-10
-4.0454e-11
-8.83761e-13
-1.82164e-15
-1.66847e-18
-1.06231e-20
-6.44437e-23
-6.15583e-25
-5.99063e-27
-3.56342e-29
-3.06892e-31
3.2205e-33
5.25043e-34
2.65657e-35
0.632831
0.260911
0.0768582
0.017077
0.00462157
0.000174555
3.95004e-06
6.18216e-08
7.48481e-10
7.09e-12
4.74323e-14
1.97457e-16
4.74636e-19
1.20194e-21
4.02959e-14
4.0433e-09
-8.10147e-08
-2.08662e-12
-8.57176e-17
-5.01841e-21
-7.8807e-26
-2.91854e-29
-3.68829e-31
-2.29751e-30
-3.86551e-31
-4.06075e-33
-3.9564e-34
4.32559e-35
3.2034e-36
1.2996e-37
0.632933
0.260556
0.0763256
0.0167262
0.00441197
0.000152044
2.95217e-06
3.7899e-08
3.53011e-10
2.4654e-12
1.6192e-14
1.23853e-16
9.45192e-19
1.725e-20
1.06143e-12
5.83992e-07
3.26643e-05
1.35413e-45
-5.84782e-38
-1.16391e-39
-6.58147e-39
-1.88143e-38
-1.53182e-39
7.64131e-37
7.01711e-38
4.4019e-39
1.05964e-39
0.633066
0.26009
0.0756173
0.0162507
0.00411809
0.000120926
1.72658e-06
1.34078e-08
8.88128e-11
3.78098e-12
1.49776e-13
3.03901e-15
3.72782e-17
2.79911e-19
4.34175e-15
6.91201e-09
6.98478e-07
1.73321e-54
1.09299e-41
1.29015e-39
5.66537e-41
3.63367e-43
3.39258e-40
5.606e-36
5.39057e-37
3.28427e-38
1.89867e-39
0.633218
0.25957
0.0748045
0.0156964
0.00376198
8.52029e-05
6.25514e-07
1.10777e-09
5.36831e-12
5.98147e-14
8.69477e-17
5.34398e-17
3.72546e-19
8.82867e-22
1.09195e-17
7.90433e-11
1.20142e-08
-4.15652e-50
2.68447e-37
2.0839e-35
5.5889e-37
2.6529e-39
5.20926e-42
1.42138e-37
6.99336e-39
3.30829e-40
1.78829e-41
0.63337
0.259106
0.0740642
0.0151865
0.00341925
5.4628e-05
8.79253e-08
8.63202e-11
-6.29412e-30
-1.48428e-20
-1.52726e-18
3.96194e-13
3.34268e-11
7.84379e-23
2.45161e-28
1.2625e-29
-3.56956e-35
8.20297e-31
7.52528e-32
1.15594e-33
6.25166e-36
1.56286e-38
9.40189e-36
2.28376e-37
3.68736e-39
5.32671e-41
0.633455
0.258824
0.0736158
0.0148773
0.00319628
3.76796e-05
1.14152e-09
9.43293e-11
-2.35038e-27
-5.37474e-21
-6.52063e-20
1.83113e-15
5.68869e-14
5.8975e-16
3.96391e-18
1.69031e-20
4.74498e-23
1.00969e-25
1.64246e-28
1.99719e-31
2.67992e-34
1.23191e-36
1.66208e-34
6.10745e-36
1.32442e-37
2.48695e-39
0.633455
0.258826
0.0736158
0.0148768
0.00316819
3.45465e-05
1.03596e-09
7.75152e-11
-1.59922e-28
-6.67141e-25
3.82537e-24
8.9125e-21
1.47798e-19
2.54654e-21
2.79356e-23
1.94822e-25
9.09608e-28
3.1346e-30
1.61936e-32
7.63305e-35
1.88239e-37
3.50475e-40
8.48763e-37
3.34639e-38
7.38062e-40
1.43127e-41
0.633369
0.259101
0.0740596
0.0151839
0.00334464
4.477e-05
6.8782e-09
1.23923e-10
-8.84665e-33
-1.06394e-28
1.32778e-28
-5.99694e-29
-1.51494e-26
-2.28406e-27
-1.06124e-29
2.4793e-30
1.41814e-33
9.50297e-37
2.70579e-36
1.76428e-37
1.55623e-39
4.87535e-42
1.52046e-38
5.17732e-40
1.01553e-41
1.75496e-43
0.63322
0.259567
0.0747981
0.0156924
0.00366738
6.96459e-05
2.85246e-07
2.39159e-11
4.352e-14
1.49259e-19
5.54748e-24
5.47301e-25
2.2983e-31
2.00439e-25
2.53183e-25
-4.58976e-30
1.31485e-34
3.03812e-44
6.06969e-41
9.52666e-40
-9.13629e-47
1.93334e-41
6.89294e-39
3.70258e-40
2.55188e-42
5.89709e-45
1.72029e-40
5.29675e-42
1.0082e-43
1.77981e-45
0.633065
0.260084
0.0756078
0.0162451
0.00403086
0.000104418
1.13663e-06
5.32115e-09
1.09923e-10
8.15398e-12
2.06747e-13
2.30776e-15
1.35921e-17
5.55386e-20
1.71269e-22
-1.21718e-27
1.28742e-31
-1.28504e-59
1.67814e-47
1.37271e-43
5.43657e-44
6.35379e-46
3.06071e-47
1.3169e-42
3.81073e-44
6.87232e-46
1.09767e-47
0.632936
0.260547
0.0763154
0.0167195
0.00434525
0.000138472
2.35574e-06
2.481e-08
1.84208e-10
1.61806e-12
2.77696e-14
7.31336e-16
1.08597e-17
8.04089e-20
2.64719e-22
-2.30049e-26
1.98429e-30
1.7207e-64
2.10222e-52
9.50409e-49
2.43603e-48
5.84049e-50
1.59337e-48
7.22595e-45
1.98874e-46
3.15029e-48
3.74071e-50
0.632829
0.260895
0.0768411
0.0170689
0.00457429
0.000164806
3.48159e-06
5.01149e-08
5.48317e-10
4.36085e-12
2.34424e-14
9.18645e-17
2.99442e-19
8.37055e-22
1.85304e-24
-4.54454e-27
4.23604e-31
9.48922e-63
3.90974e-50
8.84236e-53
4.65456e-53
6.09055e-54
1.43517e-50
2.65192e-47
7.01956e-49
9.61382e-51
9.17178e-53
0.63279
0.261165
0.0772166
0.0173058
0.004726
0.000182475
4.29653e-06
7.05062e-08
8.92256e-10
9.05979e-12
7.14394e-14
3.98524e-16
1.3844e-18
2.59151e-21
2.78312e-24
-7.54683e-27
2.37839e-30
3.63371e-36
4.22971e-39
1.87855e-43
-3.32809e-45
4.95495e-45
2.1642e-47
7.11417e-51
2.57725e-55
1.27579e-53
7.22743e-50
4.34435e-51
1.60859e-50
8.45748e-51
0.632651
0.261302
0.0774446
0.0174515
0.00481941
0.00019325
4.80632e-06
8.3862e-08
1.12185e-09
1.19451e-11
1.02535e-13
7.05168e-16
3.7956e-18
1.52443e-20
4.19491e-23
7.47525e-26
1.77785e-28
2.47742e-29
4.48147e-31
3.28465e-33
1.51453e-35
4.92887e-38
1.11219e-40
1.64321e-43
1.49997e-46
8.20061e-50
1.21781e-45
1.68543e-46
1.19444e-45
6.60678e-46
0.632629
0.261375
0.0775839
0.0175412
0.00487391
0.000199316
5.09392e-06
9.15562e-08
1.25827e-09
1.3727e-11
1.20991e-13
8.65843e-16
5.04132e-18
2.40267e-20
9.5871e-23
3.33258e-25
1.02792e-27
3.04387e-30
1.01405e-32
3.76586e-35
1.4771e-37
5.28511e-40
1.66232e-42
4.63907e-45
6.41771e-47
-4.67775e-46
9.07703e-41
1.09183e-41
1.10544e-41
1.56181e-42
0.632579
0.261457
0.0776808
0.0175941
0.00490701
0.000202772
5.25144e-06
9.56964e-08
1.33226e-09
1.47208e-11
1.32031e-13
9.7409e-16
5.97524e-18
3.0904e-20
1.38308e-22
5.60831e-25
2.19099e-27
8.42846e-30
3.02925e-32
9.38242e-35
7.01865e-38
-1.05838e-38
-1.03653e-39
3.48123e-39
1.56471e-38
6.30025e-39
6.62268e-36
6.4161e-37
4.18008e-38
2.28047e-39
0.632542
0.261583
0.0778463
0.0176686
0.00492169
0.000202766
5.23977e-06
9.52654e-08
1.32041e-09
1.45276e-11
1.30531e-13
9.86581e-16
7.03099e-18
8.13758e-20
2.47358e-21
1.01651e-22
3.91094e-24
1.24078e-25
2.13469e-27
-9.87662e-29
-1.42571e-29
-1.0846e-30
-6.67758e-32
2.40303e-32
2.348e-32
2.81775e-33
1.07681e-32
6.0484e-34
2.82233e-35
1.17914e-36
0.632289
0.261778
0.0780457
0.0179148
0.00332509
0.000514879
6.83043e-05
7.91347e-06
8.13699e-07
7.5214e-08
6.31388e-09
4.85429e-10
3.44353e-11
2.27132e-12
1.40359e-13
8.19135e-15
4.546e-16
2.41127e-17
1.22443e-18
5.948e-20
2.76047e-21
1.22314e-22
5.1742e-24
2.0914e-25
8.08994e-27
2.99941e-28
1.06458e-29
3.60873e-31
1.17096e-32
3.632e-34
0.632256
0.261893
0.0781766
0.0179797
0.00333899
0.000518357
6.89855e-05
8.02123e-06
8.27581e-07
7.67276e-08
6.45879e-09
4.97981e-10
3.54413e-11
2.34454e-12
1.45153e-13
8.46308e-15
4.67224e-16
2.45144e-17
1.22496e-18
5.83366e-20
2.64766e-21
1.14536e-22
4.72488e-24
1.86076e-25
7.00142e-27
2.5201e-28
8.68546e-30
2.8692e-31
9.10212e-33
2.7709e-34
0.632237
0.261909
0.078195
0.017986
0.00334044
0.0005185
6.8993e-05
8.02222e-06
8.27749e-07
7.67527e-08
6.46381e-09
4.98697e-10
3.55328e-11
2.35435e-12
1.46009e-13
8.522e-15
4.70482e-16
2.46571e-17
1.22962e-18
5.84297e-20
2.64748e-21
1.14448e-22
4.72384e-24
1.86348e-25
7.03382e-27
2.54238e-28
8.81022e-30
2.92824e-31
9.35115e-33
2.87362e-34
0.632211
0.261918
0.0782101
0.0179936
0.00334266
0.000518893
6.90465e-05
8.02929e-06
8.28673e-07
7.68672e-08
6.47647e-09
5.00144e-10
3.56714e-11
2.36655e-12
1.46931e-13
8.58593e-15
4.74324e-16
2.48652e-17
1.24e-18
5.89176e-20
2.67e-21
1.15489e-22
4.77183e-24
1.88521e-25
7.12719e-27
2.58185e-28
8.96641e-30
2.98768e-31
9.57917e-33
2.95751e-34
0.632992
0.266415
0.0822922
0.0199954
0.00400342
0.000682373
0.000101409
1.33796e-05
1.58967e-06
1.72061e-07
1.71277e-08
1.58064e-09
1.3616e-10
1.10132e-11
8.40736e-13
6.08398e-14
4.18824e-15
2.75012e-16
1.72551e-17
1.03552e-18
5.94726e-20
3.26906e-21
1.71981e-22
8.65917e-24
4.17283e-25
1.92529e-26
8.50599e-28
3.60061e-29
1.46265e-30
5.69509e-32
0.632971
0.266418
0.0823099
0.0200086
0.0040091
0.000684056
0.000101782
1.3446e-05
1.5997e-06
1.73388e-07
1.72849e-08
1.5976e-09
1.37849e-10
1.11708e-11
8.54678e-13
6.20184e-14
4.2839e-15
2.82443e-16
1.78044e-17
1.07395e-18
6.20114e-20
3.42712e-21
1.81272e-22
9.17466e-24
4.44289e-25
2.05908e-26
9.13603e-28
3.88192e-29
1.58227e-30
6.1795e-32
0.632924
0.266424
0.0823515
0.0200393
0.0040221
0.000687856
0.000102616
1.35958e-05
1.62275e-06
1.76518e-07
1.76643e-08
1.63927e-09
1.42046e-10
1.15643e-11
8.8942e-13
6.49409e-14
4.5193e-15
3.00587e-16
1.91367e-17
1.16667e-18
6.81178e-20
3.80712e-21
2.0365e-22
1.04206e-23
5.09981e-25
2.3865e-26
1.06839e-27
4.57696e-29
1.87937e-30
7.38804e-32
0.63283
0.266406
0.082407
0.020094
0.00404888
0.000693314
0.000103438
1.37026e-05
1.63559e-06
1.77951e-07
1.78114e-08
1.65274e-09
1.43134e-10
1.1642e-11
8.94648e-13
6.53226e-14
4.55383e-15
3.04112e-16
1.94822e-17
1.19714e-18
7.05179e-20
3.97891e-21
2.14942e-22
1.11075e-23
5.4859e-25
2.58778e-26
1.16608e-27
5.02225e-29
2.07144e-30
8.17806e-32
0.63274
0.266341
0.0824504
0.0201646
0.00694376
0.000567788
3.0834e-05
1.1881e-06
3.42698e-08
7.94821e-10
1.77722e-11
5.8778e-13
3.38524e-14
2.37149e-15
1.65999e-16
1.11916e-17
6.75557e-19
2.61358e-20
1.17364e-21
1.04871e-22
7.47194e-24
4.30484e-25
2.24755e-26
1.10979e-27
5.3212e-28
8.24666e-29
1.95177e-30
1.31383e-31
7.30517e-33
3.55315e-34
0.632621
0.266318
0.0825097
0.0202203
0.00698417
0.000574932
3.14332e-05
1.21713e-06
3.49799e-08
7.75589e-10
1.36672e-11
1.95897e-13
2.32831e-15
2.33686e-17
2.05948e-19
-3.84207e-18
-3.84683e-16
-1.48081e-16
-1.03062e-17
-2.7728e-19
-4.36396e-21
-4.72799e-23
-3.76995e-25
-2.30028e-27
-1.12942e-29
-4.80326e-32
5.53708e-31
4.87652e-32
2.65294e-33
1.18608e-34
0.632527
0.26631
0.0825575
0.0202571
0.0070078
0.00057986
3.19513e-05
1.24998e-06
3.6392e-08
8.19259e-10
1.4669e-11
2.1325e-13
2.55817e-15
2.5726e-17
6.48618e-18
-1.55311e-14
-1.33755e-12
-5.08451e-13
-2.66848e-14
-5.48503e-16
-7.1525e-18
-6.82118e-20
-4.89356e-22
-2.85808e-24
-1.40805e-26
-5.87164e-29
5.39283e-27
3.74751e-28
1.82366e-29
7.50843e-31
0.632422
0.26628
0.0825786
0.0202761
0.00701938
0.000582493
3.22784e-05
1.27491e-06
3.76688e-08
8.64823e-10
1.58282e-11
2.34657e-13
2.84647e-15
2.8517e-17
3.98909e-15
-1.88669e-11
-2.18674e-09
-1.11777e-09
-3.95898e-11
-5.78799e-13
-5.44771e-15
-3.98023e-17
-4.83054e-19
-4.80915e-21
-3.65261e-23
-2.10444e-25
1.49422e-24
7.86085e-26
3.42345e-27
1.32019e-28
0.632297
0.266213
0.0825604
0.0202689
0.00701254
0.000581501
3.22849e-05
1.2846e-06
3.85577e-08
9.07199e-10
1.70928e-11
2.59809e-13
3.17993e-15
3.11525e-17
1.11704e-12
-9.66869e-09
-3.01597e-07
-1.36497e-06
3.26533e-08
1.1478e-09
3.68853e-13
2.05616e-16
3.63719e-19
2.58638e-21
3.03926e-23
1.92636e-25
2.2203e-26
9.90262e-28
4.01301e-29
1.4646e-30
0.632144
0.266088
0.0824771
0.0202171
0.00697424
0.000573998
3.16547e-05
1.25852e-06
3.82207e-08
9.22553e-10
1.7899e-11
2.76275e-13
3.31287e-15
4.8837e-17
1.81365e-10
4.46992e-06
-0.000152664
-2.35446e-10
-1.6907e-15
8.30977e-18
-9.1516e-24
-5.50111e-25
7.5312e-28
1.18793e-28
3.25388e-28
6.22938e-30
8.55166e-29
4.36884e-30
1.88358e-31
6.79171e-33
0.631966
0.265882
0.0823021
0.0200984
0.00688665
0.000555591
2.98839e-05
1.16313e-06
3.52586e-08
8.76107e-10
1.79162e-11
2.97634e-13
3.95156e-15
1.77174e-16
4.21801e-09
0.0579977
0.262979
1.2369e-38
-1.46589e-33
1.00648e-36
2.0867e-37
4.89878e-36
-2.77813e-35
6.67245e-32
6.19801e-33
3.53897e-34
1.42308e-35
0.631782
0.265599
0.0820148
0.0198948
0.00673327
0.000521974
2.64933e-05
9.72189e-07
2.92473e-08
8.00255e-10
1.93355e-11
3.67385e-13
5.1524e-15
5.18638e-17
8.23608e-11
0.000868561
0.0057897
3.72219e-43
1.03644e-36
6.62613e-35
1.84566e-36
2.65678e-38
1.02542e-37
3.94095e-33
4.18269e-34
2.65811e-35
1.39199e-36
0.63162
0.265268
0.0816423
0.0196197
0.00651808
0.000473259
2.15402e-05
1.19053e-06
6.54321e-09
2.13374e-11
1.05528e-14
1.8458e-16
5.44068e-19
-4.47955e-19
-3.35e-11
2.33447e-05
8.50424e-05
-1.22022e-38
3.98268e-31
2.71927e-30
3.34548e-32
1.13449e-34
1.89532e-37
6.56103e-35
3.68753e-36
1.88721e-37
9.90371e-39
0.631502
0.264965
0.0812772
0.0193419
0.00629151
0.000421216
1.63818e-05
6.69808e-07
-2.89857e-22
-1.09619e-14
-1.71214e-12
3.14013e-08
1.16545e-07
-9.19897e-18
-3.22504e-22
-5.10828e-25
1.90676e-31
1.60258e-24
3.32742e-26
2.24491e-28
7.37734e-31
1.34648e-33
7.14514e-33
1.32386e-34
1.84417e-36
2.32084e-38
0.631437
0.264773
0.0810447
0.0191642
0.00613838
0.000385984
1.3218e-05
3.85958e-07
-4.19449e-20
-7.74057e-15
-1.06678e-12
1.5293e-10
1.24942e-10
1.33033e-12
7.45417e-15
2.80121e-17
7.1293e-20
1.51294e-22
3.6903e-25
2.54236e-26
2.45188e-28
8.07313e-31
4.18207e-31
9.75101e-33
1.59441e-34
2.26744e-36
0.63144
0.264776
0.0810445
0.0191635
0.00612217
0.000379849
1.26612e-05
3.42859e-07
-1.41168e-22
-5.03168e-19
-2.45909e-17
2.39099e-15
8.14161e-16
1.81541e-17
2.86242e-19
2.92949e-21
1.91042e-23
9.12355e-26
5.93896e-28
2.67075e-30
4.60482e-32
5.7594e-34
2.58328e-33
6.50689e-35
1.10803e-36
1.60861e-38
0.631501
0.264961
0.081273
0.0193393
0.00624795
0.000403867
1.45994e-05
4.67138e-07
-2.3301e-26
-1.46094e-22
-2.67984e-25
3.68149e-22
-1.20653e-20
-4.72708e-23
3.53152e-26
-1.07945e-25
-1.66129e-27
6.49702e-29
6.35048e-30
9.42665e-32
5.38429e-34
1.50841e-36
1.58355e-35
4.51206e-37
8.15799e-39
1.20135e-40
0.631618
0.265268
0.0816377
0.0196163
0.0064636
0.00045062
1.89941e-05
8.92462e-07
6.94842e-10
2.70035e-19
6.34008e-25
5.73004e-23
-7.87601e-32
5.03762e-25
9.32896e-24
1.72492e-25
1.2482e-29
-3.74918e-34
-8.96825e-35
-3.42868e-34
4.30034e-40
7.28494e-34
1.96343e-33
4.99844e-35
3.08237e-37
8.02462e-40
9.29839e-38
2.73476e-39
5.10494e-41
7.63826e-43
0.631777
0.265594
0.0820084
0.0198906
0.00668558
0.000502245
2.4271e-05
8.49988e-07
2.37241e-08
6.21553e-10
1.1984e-11
1.12507e-13
4.68025e-16
1.82093e-18
1.76529e-20
1.47892e-22
3.32021e-26
7.62889e-46
1.07904e-41
3.73447e-38
4.80763e-39
4.6058e-41
1.33122e-43
4.73052e-40
1.30295e-41
2.34174e-43
3.19763e-45
0.631963
0.265877
0.0822952
0.0200942
0.00685299
0.000542068
2.84048e-05
1.07683e-06
3.24476e-08
8.36259e-10
1.85282e-11
3.44037e-13
5.17758e-15
6.1324e-17
5.21804e-19
2.52232e-21
5.26591e-25
-1.68282e-52
4.6893e-47
2.35419e-43
1.6974e-43
3.00664e-45
2.42814e-46
1.82167e-42
4.57437e-44
6.91816e-46
7.35582e-48
0.632156
0.266084
0.0824693
0.0202131
0.00695293
0.000565937
3.08476e-05
1.21506e-06
3.68411e-08
8.96695e-10
1.76121e-11
2.74388e-13
3.3157e-15
3.00123e-17
1.89505e-19
1.37139e-21
4.70707e-26
5.29158e-56
4.9055e-49
8.90409e-49
2.74715e-48
8.97737e-50
1.78036e-48
4.47429e-45
1.01004e-46
1.26931e-48
1.35164e-50
0.632292
0.266219
0.0825598
0.0202653
0.00699959
0.000577168
3.19083e-05
1.2684e-06
3.82398e-08
9.08911e-10
1.73267e-11
2.64743e-13
3.19608e-15
2.95792e-17
2.00182e-19
1.75571e-21
4.21782e-25
2.92504e-31
3.23312e-37
2.26578e-37
-8.75849e-44
3.92143e-42
3.61972e-44
8.62676e-49
6.98003e-52
5.62779e-52
6.55782e-48
5.38838e-47
9.76632e-47
3.93212e-47
0.6324
0.266268
0.0825751
0.0202733
0.00701132
0.000580291
3.21349e-05
1.27182e-06
3.77849e-08
8.74942e-10
1.61738e-11
2.4149e-13
2.92786e-15
2.88539e-17
2.32144e-19
1.56078e-21
9.47946e-24
5.94689e-26
3.864e-28
2.19553e-30
1.01213e-32
3.68551e-35
1.01177e-37
2.00507e-40
2.8149e-43
2.93912e-46
-7.44489e-47
1.30694e-43
1.28514e-43
3.92901e-44
0.632523
0.266298
0.0825483
0.020253
0.00700327
0.000578853
3.1923e-05
1.25199e-06
3.66154e-08
8.29365e-10
1.49438e-11
2.18132e-13
2.61473e-15
2.60633e-17
2.20262e-19
1.63164e-21
1.10892e-23
7.09614e-26
4.1682e-28
2.16088e-30
9.75442e-33
3.84647e-35
1.33395e-37
4.11331e-40
1.14543e-42
2.89685e-45
-1.76643e-42
1.82256e-40
1.24261e-40
3.08596e-41
0.63262
0.266316
0.0825056
0.0202173
0.00698166
0.000575102
3.15063e-05
1.22358e-06
3.5301e-08
7.85978e-10
1.39002e-11
1.99618e-13
2.36925e-15
2.36488e-17
2.02485e-19
1.52607e-21
1.04251e-23
6.5931e-26
3.84395e-28
2.02706e-30
9.52532e-33
3.97399e-35
1.58408e-37
1.09742e-39
2.68132e-41
1.46773e-42
-5.2837e-38
6.02066e-37
2.25921e-37
3.67481e-38
0.632736
0.266338
0.0824467
0.0201617
0.00694536
0.000568252
3.08549e-05
1.1857e-06
3.37778e-08
7.41553e-10
1.29329e-11
1.83467e-13
2.16396e-15
2.18633e-17
2.09803e-19
2.9993e-21
1.06312e-22
5.69205e-24
3.1628e-25
1.70307e-26
8.80246e-28
4.36447e-29
2.07538e-30
9.48873e-32
4.16895e-33
1.75451e-34
-2.54566e-33
4.59688e-33
6.45317e-34
5.55036e-35
0.632827
0.266402
0.0824033
0.0200913
0.00404759
0.000692912
0.000103333
1.36802e-05
1.6314e-06
1.77267e-07
1.7712e-08
1.64005e-09
1.4167e-10
1.14871e-11
8.7958e-13
6.39624e-14
4.43924e-15
2.95054e-16
1.88071e-17
1.14936e-18
6.73112e-20
3.77493e-21
2.02766e-22
1.04341e-23
5.14778e-25
2.43548e-26
1.10557e-27
4.81589e-29
2.01553e-30
8.09176e-32
0.632922
0.266419
0.0823468
0.0200365
0.00402081
0.000687426
0.000102504
1.35715e-05
1.61834e-06
1.75812e-07
1.7565e-08
1.62685e-09
1.40626e-10
1.14159e-11
8.75079e-13
6.36553e-14
4.41211e-15
2.92191e-16
1.85169e-17
1.1237e-18
6.53027e-20
3.63365e-21
1.93673e-22
9.88961e-24
4.84017e-25
2.27179e-26
1.02296e-27
4.42056e-29
1.83562e-30
7.31247e-32
0.632968
0.266414
0.0823064
0.0200061
0.00400791
0.000683652
0.000101674
1.34226e-05
1.59543e-06
1.72711e-07
1.7192e-08
1.58578e-09
1.36521e-10
1.10329e-11
8.41598e-13
6.08608e-14
4.18822e-15
2.75051e-16
1.72688e-17
1.03751e-18
5.96726e-20
3.28685e-21
1.73411e-22
8.76692e-24
4.24948e-25
1.97525e-26
8.8104e-28
3.77136e-29
1.55153e-30
6.12767e-32
0.632989
0.26641
0.0822887
0.0199929
0.0040022
0.000681959
0.0001013
1.33562e-05
1.58542e-06
1.71393e-07
1.70351e-08
1.56925e-09
1.34872e-10
1.08813e-11
8.28188e-13
5.97371e-14
4.09796e-15
2.68091e-16
1.67581e-17
1.00197e-18
5.73518e-20
3.14334e-21
1.65055e-22
8.30604e-24
4.00713e-25
1.85478e-26
8.23727e-28
3.51184e-29
1.43928e-30
5.66441e-32
0.631793
0.264513
0.0808526
0.0193338
0.00379097
0.000630284
9.10909e-05
1.16632e-05
1.34302e-06
1.40777e-07
1.35678e-08
1.21249e-09
1.01195e-10
7.93671e-12
5.88118e-13
4.13615e-14
2.77104e-15
1.77341e-16
1.08624e-17
6.3749e-19
3.58743e-20
1.93613e-21
1.00233e-22
4.97816e-24
2.37245e-25
1.08525e-26
4.76597e-28
2.01063e-29
8.1597e-31
3.18438e-32
0.631799
0.264521
0.0808599
0.0193384
0.00379293
0.00063088
9.12309e-05
1.16898e-05
1.34723e-06
1.41356e-07
1.36385e-08
1.22028e-09
1.01985e-10
8.01177e-12
5.94872e-13
4.1943e-14
2.81901e-15
1.81115e-16
1.11437e-17
6.57268e-19
3.71794e-20
2.0173e-21
1.05001e-22
5.24218e-24
2.5107e-25
1.1539e-26
5.08997e-28
2.15598e-29
8.78195e-31
3.43889e-32
0.631806
0.264537
0.0808746
0.0193478
0.00379689
0.000632104
9.15194e-05
1.17444e-05
1.35596e-06
1.42568e-07
1.3788e-08
1.23692e-09
1.03687e-10
8.17411e-12
6.09558e-13
4.32161e-14
2.92865e-15
1.90441e-16
1.18713e-17
7.08732e-19
4.05352e-20
2.2221e-21
1.16802e-22
5.88689e-24
2.84591e-25
1.31962e-26
5.87131e-28
2.50732e-29
1.02921e-30
4.05968e-32
0.631824
0.264562
0.0808963
0.0193607
0.00380402
0.00063234
9.13562e-05
1.17032e-05
1.34983e-06
1.41872e-07
1.37225e-08
1.23151e-09
1.03291e-10
8.15005e-12
6.08713e-13
4.44231e-14
4.66179e-15
5.64883e-16
4.42174e-17
2.60999e-18
1.37782e-19
6.93426e-21
3.37155e-22
1.58407e-23
7.18284e-25
3.14071e-26
1.32401e-27
5.38089e-29
2.11012e-30
7.98303e-32
0.631855
0.264602
0.0809251
0.0193845
0.00652958
0.000512843
2.64168e-05
9.59661e-07
2.61526e-08
5.78983e-10
1.27634e-11
4.35533e-13
2.54062e-14
1.7536e-15
1.19712e-16
-5.44841e-16
2.06591e-15
6.67805e-16
4.38783e-17
1.21602e-18
1.92237e-20
1.99449e-22
1.46389e-24
1.439e-26
1.60751e-27
1.26755e-28
8.22307e-30
3.63218e-31
1.54016e-32
6.214e-34
0.631874
0.264623
0.0809409
0.0193954
0.0065409
0.000515602
2.66965e-05
9.74696e-07
2.64862e-08
5.58332e-10
9.42621e-12
1.30679e-13
1.51887e-15
1.50843e-17
-2.69628e-15
-1.74168e-12
2.02757e-11
5.94027e-12
3.64976e-13
9.94106e-15
1.64381e-16
1.87989e-18
1.55403e-20
9.90646e-23
5.52146e-25
2.69018e-27
7.05721e-26
2.60228e-27
9.22674e-29
3.14546e-30
0.631891
0.264631
0.0809432
0.0193988
0.00654711
0.000517766
2.69727e-05
9.94292e-07
2.73891e-08
5.87573e-10
1.01216e-11
1.43244e-13
1.69635e-15
1.63757e-17
-5.8131e-12
-1.07926e-10
7.8779e-08
2.09466e-08
1.18155e-09
3.114e-11
5.34006e-13
6.66321e-15
6.1261e-17
4.72648e-19
3.15715e-21
1.82313e-23
4.87124e-22
1.77234e-23
6.19035e-25
2.07525e-26
0.631905
0.264622
0.0809209
0.0193874
0.00654458
0.000518681
2.71758e-05
1.01276e-06
2.83954e-08
6.24267e-10
1.10745e-11
1.61577e-13
1.96526e-15
-5.692e-16
-5.26986e-09
4.58342e-06
0.000116909
2.96121e-05
1.54518e-06
4.0365e-08
7.46079e-10
1.07182e-11
1.2307e-13
1.18265e-15
9.63311e-18
6.62427e-20
7.49763e-20
2.67862e-21
9.18515e-23
3.02163e-24
0.631918
0.264582
0.0808587
0.0193506
0.00652721
0.000517265
2.72118e-05
1.02602e-06
2.94279e-08
6.69931e-10
1.2416e-11
1.89724e-13
2.40397e-15
-2.04302e-13
-2.05139e-06
0.00382801
-0.00762865
0.0119194
0.000265668
5.42737e-06
2.7475e-09
6.09315e-13
1.25921e-15
1.77693e-17
3.7265e-19
4.37071e-21
7.47648e-22
2.44541e-23
8.24667e-25
2.71006e-26
0.631934
0.264497
0.0807363
0.0192736
0.0064851
0.000511534
2.68941e-05
1.02386e-06
3.01836e-08
7.21477e-10
1.42611e-11
2.33455e-13
3.14711e-15
-3.54434e-11
-0.000419454
-1.04748
-2.83588
9.79803e-08
-4.31223e-13
1.00836e-13
-7.57447e-20
-2.39873e-21
5.21168e-24
4.47676e-25
3.02968e-24
1.32788e-25
2.00047e-24
8.59355e-26
3.35673e-27
1.18939e-28
0.631955
0.264353
0.0805284
0.0191387
0.00640508
0.000498624
2.59054e-05
9.85755e-07
2.98603e-08
7.61279e-10
1.64986e-11
3.0191e-13
4.60335e-15
1.11388e-10
0.00295574
7875.77
462.611
-2.49851e-33
-1.02979e-29
1.72798e-32
3.23293e-32
1.27799e-31
3.10694e-31
2.64537e-27
1.63714e-28
8.15825e-30
3.32165e-31
0.631982
0.264148
0.0802266
0.0189351
0.00627656
0.000475375
2.38144e-05
8.75128e-07
2.62158e-08
7.14442e-10
1.74043e-11
3.18389e-13
3.94179e-15
4.20685e-12
0.000114951
254.083
22.9301
9.10978e-38
6.76559e-32
4.72259e-31
6.73126e-32
3.12143e-33
7.19922e-35
2.21099e-30
2.40959e-31
1.59101e-32
8.00471e-34
0.632032
0.263904
0.0798616
0.0186786
0.00610392
0.000440898
2.0286e-05
1.13505e-06
5.93079e-09
1.67117e-11
4.77538e-15
5.56536e-17
4.43112e-20
-4.72331e-12
-9.82044e-05
16.8659
0.974299
-1.01567e-34
5.64293e-25
4.37491e-26
2.15453e-28
4.35206e-31
5.27855e-34
1.84848e-32
1.24411e-33
6.80579e-35
3.58691e-36
0.632076
0.263681
0.0795168
0.0184299
0.00592644
0.00040278
1.6093e-05
6.28235e-07
-2.39388e-17
-1.15315e-10
-3.32281e-06
0.0547532
0.0271647
-2.01639e-12
8.37145e-15
4.51531e-17
1.57583e-22
1.87189e-19
1.11553e-21
3.60741e-24
7.15662e-27
9.38928e-30
2.58739e-30
3.0232e-32
3.40126e-34
3.85005e-36
0.632104
0.263544
0.0793039
0.0182752
0.00580889
0.000376638
1.3447e-05
3.80187e-07
-3.77162e-14
-4.99539e-09
-1.32401e-06
0.000914354
0.000268061
2.37337e-06
1.61378e-08
6.63714e-11
1.80544e-13
4.27179e-16
2.43802e-18
8.88554e-21
1.95489e-23
2.85886e-26
3.44784e-28
4.4986e-30
5.49891e-32
6.41677e-34
0.632106
0.263544
0.0793019
0.0182743
0.0057967
0.000371821
1.29636e-05
3.43764e-07
-1.19563e-17
5.29825e-13
2.13797e-10
6.03525e-08
2.36519e-08
2.85345e-10
2.56852e-12
1.88688e-14
9.57836e-17
4.31923e-19
2.0177e-21
1.24337e-23
5.8269e-26
1.39582e-28
2.22728e-30
3.11425e-32
4.02825e-34
4.88461e-36
0.632076
0.263678
0.0795116
0.018427
0.00589364
0.0003893
1.45348e-05
4.45568e-07
-9.67684e-21
7.86995e-18
7.16348e-18
1.28446e-15
-1.65938e-14
-5.99334e-18
1.02879e-19
-9.88881e-21
-1.94531e-21
9.66967e-23
9.423e-25
5.84152e-27
2.10371e-29
4.52278e-32
4.96903e-33
1.09426e-34
1.76755e-36
2.40388e-38
0.632028
0.263898
0.0798543
0.0186741
0.00606276
0.000423772
1.81828e-05
8.26944e-07
5.35165e-10
1.03702e-18
2.17645e-25
5.59055e-23
-7.07035e-26
3.89667e-23
2.52199e-24
-7.34047e-25
-2.2858e-27
2.32342e-27
1.5443e-25
1.86811e-26
-1.20452e-32
8.9252e-28
7.51064e-29
8.73308e-31
3.96945e-33
9.18849e-36
1.51619e-35
4.00946e-37
7.23729e-39
1.03919e-40
0.631986
0.264141
0.0802187
0.01893
0.00624018
0.000460972
2.22267e-05
7.77624e-07
2.0584e-08
5.13825e-10
8.45519e-12
4.9766e-14
8.99954e-17
2.75159e-19
6.72154e-21
8.13333e-23
1.38836e-26
4.38092e-41
6.84459e-36
1.16581e-33
4.78695e-35
3.17009e-37
8.15389e-40
4.78273e-38
1.27381e-39
2.29574e-41
3.04226e-43
0.631956
0.264349
0.0805202
0.0191336
0.00637872
0.000488764
2.49508e-05
9.36684e-07
2.84708e-08
7.51835e-10
1.75796e-11
3.54413e-13
5.90644e-15
7.96196e-17
8.04307e-19
4.60056e-21
9.63077e-25
-4.6772e-47
8.41527e-43
4.15522e-39
9.47546e-40
1.06931e-41
3.05042e-44
1.02986e-40
2.50164e-42
4.04154e-44
3.89517e-46
0.63195
0.264504
0.0807297
0.019269
0.00646759
0.000505414
2.63799e-05
1.0034e-06
2.99279e-08
7.3591e-10
1.51265e-11
2.58094e-13
3.62019e-15
4.08555e-17
3.45922e-19
3.33324e-21
1.04336e-25
1.70082e-54
4.27523e-49
3.47616e-45
5.25514e-45
1.18558e-46
2.17454e-48
8.47387e-44
1.61128e-45
2.95956e-47
2.73487e-48
0.631904
0.264579
0.0808541
0.0193458
0.00651632
0.000513554
2.69495e-05
1.0188e-06
2.9542e-08
6.85936e-10
1.30521e-11
2.05031e-13
2.65822e-15
2.82492e-17
2.41765e-19
2.98372e-21
1.30019e-24
1.2282e-30
6.51059e-37
1.94763e-37
-1.31249e-44
3.49326e-44
5.59877e-45
2.03412e-46
3.44859e-49
-5.6541e-51
1.25312e-43
5.71695e-44
1.23569e-44
1.58894e-45
0.631908
0.264601
0.0809129
0.0193837
0.00653689
0.000516466
2.70415e-05
1.01089e-06
2.85743e-08
6.3651e-10
1.14785e-11
1.70277e-13
2.09737e-15
2.16193e-17
1.88637e-19
1.43784e-21
1.01341e-23
7.29609e-26
5.47597e-28
3.50061e-30
1.70588e-32
6.19848e-35
1.69976e-37
3.56157e-40
5.92827e-43
8.48013e-46
8.27078e-41
3.02852e-41
5.39294e-42
6.2096e-43
0.631893
0.264628
0.0809339
0.0193934
0.00654151
0.000516347
2.68989e-05
9.94044e-07
2.75335e-08
5.95479e-10
1.03552e-11
1.47924e-13
1.76357e-15
1.78159e-17
1.55519e-19
1.20846e-21
8.72988e-24
6.07749e-26
4.02348e-28
2.44908e-30
1.34912e-32
6.70286e-35
2.99966e-37
1.21014e-39
4.42294e-42
9.86432e-45
5.50153e-38
1.57214e-38
2.24552e-39
2.25102e-40
0.631876
0.264621
0.0809354
0.0193914
0.00653725
0.000514668
2.66591e-05
9.75032e-07
2.65844e-08
5.63097e-10
9.5595e-12
1.3317e-13
1.55311e-15
1.54398e-17
1.33533e-19
1.02848e-21
7.23615e-24
4.73675e-26
2.87916e-28
1.60244e-30
8.09205e-33
3.71546e-35
1.63962e-37
1.05207e-39
2.11248e-41
-1.15931e-41
6.92327e-35
1.32238e-35
1.37956e-36
1.10079e-37
0.631857
0.2646
0.0809193
0.0193804
0.00652749
0.000512217
2.63667e-05
9.55845e-07
2.57519e-08
5.37448e-10
8.97058e-12
1.22888e-13
1.41411e-15
1.41232e-17
1.37107e-19
2.06321e-21
7.53187e-23
4.00025e-24
2.19476e-25
1.1676e-26
5.97733e-28
2.94013e-29
1.39283e-30
6.35557e-32
2.79211e-33
1.17978e-34
1.65659e-31
1.72141e-32
1.21538e-33
7.21684e-35
0.631826
0.264558
0.0808904
0.0193567
0.00380226
0.000631819
9.12317e-05
1.16786e-05
1.34558e-06
1.41229e-07
1.36356e-08
1.22103e-09
1.02152e-10
8.03642e-12
5.98315e-13
4.23907e-14
2.87273e-15
1.86809e-16
1.16747e-17
7.00974e-19
4.04264e-20
2.23785e-21
1.18953e-22
6.07197e-24
2.97866e-25
1.40491e-26
6.37282e-28
2.78052e-29
1.16801e-30
4.72126e-32
0.631808
0.264534
0.0808686
0.0193436
0.00379509
0.000631543
9.13821e-05
1.17171e-05
1.35132e-06
1.41878e-07
1.36972e-08
1.2263e-09
1.02539e-10
8.06125e-12
5.99258e-13
4.23415e-14
2.85521e-15
1.84299e-16
1.14062e-17
6.77401e-19
3.86108e-20
2.11244e-21
1.10983e-22
5.6006e-24
2.7162e-25
1.26679e-26
5.68434e-28