/*--------------------------------*- C++ -*----------------------------------*\
  =========                 |
  \\      /  F ield         | OpenFOAM: The Open Source CFD Toolbox
   \\    /   O peration     | Website:  https://openfoam.org
    \\  /    A nd           | Version:  10
     \\/     M anipulation  |
\*---------------------------------------------------------------------------*/
FoamFile
{
    format      ascii;
    class       volScalarField;
    location    "4.5";
    object      T;
}
// * * * * * * * * * * * * * * * * * * * * * * * * * * * * * * * * * * * * * //

dimensions      [0 0 0 1 0 0 0];

internalField   nonuniform List<scalar> 
96305
(
0.593517
0.225494
0.061207
0.0127522
0.00214164
0.000300336
3.60955e-05
3.79182e-06
3.53652e-07
2.96631e-08
2.26161e-09
1.5817e-10
1.02275e-11
6.15755e-13
3.47359e-14
1.84623e-15
9.28848e-17
4.43933e-18
2.02058e-19
8.77108e-21
3.6344e-22
1.43797e-23
5.43364e-25
1.96107e-26
6.76191e-28
2.23167e-29
7.04891e-31
2.13053e-32
6.17201e-34
1.70935e-35
0.59354
0.225485
0.0611939
0.0127465
0.00214018
0.000300104
3.60676e-05
3.78855e-06
3.53278e-07
2.96224e-08
2.25749e-09
1.5778e-10
1.01939e-11
6.13162e-13
3.45594e-14
1.8358e-15
9.2355e-17
4.41644e-18
2.01234e-19
8.74808e-21
3.63095e-22
1.43914e-23
5.44803e-25
1.97005e-26
6.80834e-28
2.25219e-29
7.13089e-31
2.15922e-32
6.26228e-34
1.73438e-35
0.593557
0.225469
0.0611788
0.0127414
0.00213914
0.000300008
3.60633e-05
3.78821e-06
3.5324e-07
2.96184e-08
2.25666e-09
1.5763e-10
1.01742e-11
6.11206e-13
3.44084e-14
1.82674e-15
9.19501e-17
4.40527e-18
2.01315e-19
8.78191e-21
3.65772e-22
1.45419e-23
5.51828e-25
1.99857e-26
6.90603e-28
2.27936e-29
7.19696e-31
2.17161e-32
6.26934e-34
1.72478e-35
0.593585
0.22537
0.0610768
0.0126961
0.00213023
0.000298019
3.57176e-05
3.73934e-06
3.47584e-07
2.90626e-08
2.20853e-09
1.5385e-10
9.90092e-12
5.93095e-13
3.33285e-14
1.77078e-15
8.9585e-17
4.33629e-18
2.01201e-19
8.94678e-21
3.80933e-22
1.55178e-23
6.04649e-25
2.25338e-26
8.02521e-28
2.7332e-29
8.87571e-31
2.73222e-32
8.00901e-34
2.23202e-35
0.593803
0.225185
0.0609052
0.0125125
0.00318666
0.000107367
2.22603e-06
3.26538e-08
4.22389e-10
9.01628e-12
4.35686e-13
2.586e-14
1.46588e-15
7.70076e-17
3.74684e-18
1.68668e-19
6.96075e-21
2.57049e-22
7.94857e-24
1.60637e-25
-2.24846e-27
-5.07648e-28
8.64767e-28
1.00169e-28
5.5547e-30
2.38001e-31
2.87486e-33
1.30845e-34
4.97896e-36
1.66135e-37
0.593834
0.225072
0.0607763
0.012461
0.00317061
0.000108434
2.31114e-06
3.47048e-08
3.97626e-10
3.61817e-12
2.68247e-14
1.64637e-16
8.48088e-19
3.72888e-21
1.4366e-23
5.12532e-26
2.03382e-28
1.14633e-30
-2.2284e-32
-3.17383e-33
-2.18178e-34
-1.17497e-35
3.00515e-33
1.74251e-33
2.09102e-34
1.32509e-35
6.36144e-36
4.52867e-37
2.17987e-38
8.34996e-40
0.593876
0.225013
0.0607004
0.0124215
0.00315249
0.00010725
2.27086e-06
3.37872e-08
3.84314e-10
3.472e-12
2.5431e-14
1.52523e-16
7.53936e-19
3.10574e-21
1.09479e-23
3.4858e-26
1.05939e-28
3.01403e-31
7.63483e-34
1.74417e-36
3.74265e-39
7.82371e-42
5.70706e-40
1.177e-38
4.37978e-39
5.28638e-40
1.41864e-38
1.2753e-39
6.99141e-41
2.82504e-42
0.593922
0.224927
0.0605817
0.0123564
0.00312051
0.000104714
2.17504e-06
3.17056e-08
3.53889e-10
3.13994e-12
2.24837e-14
1.30112e-16
6.0563e-19
2.25177e-21
6.63214e-24
1.50702e-26
2.97259e-29
1.05471e-31
7.19041e-34
4.05734e-36
3.93528e-38
2.00443e-40
6.57358e-43
1.49812e-45
2.18614e-45
2.09308e-45
2.75099e-41
2.91805e-42
1.79054e-43
7.63495e-45
0.59398
0.224784
0.060393
0.0122497
0.00306588
0.000100123
2.00033e-06
2.79441e-08
3.00047e-10
2.5801e-12
1.78701e-14
9.65082e-17
3.79436e-19
9.68085e-22
1.33688e-24
1.3436e-27
-4.85571e-31
-5.97375e-34
-1.16493e-35
-4.00137e-38
-1.24983e-40
7.02199e-41
3.52309e-40
1.11884e-42
2.61044e-45
-4.21009e-43
8.40634e-38
2.08168e-39
4.00959e-41
6.78365e-43
0.594044
0.224562
0.0600995
0.0120797
0.00297608
9.23493e-05
1.70788e-06
2.18213e-08
2.15655e-10
1.66647e-12
9.07472e-15
3.06251e-17
5.92605e-20
7.34194e-23
9.08624e-26
-2.70094e-28
5.02068e-33
2.63968e-39
1.46969e-42
2.73598e-47
-1.39664e-49
4.84493e-36
1.05006e-34
1.66855e-36
3.9555e-40
-6.98978e-40
6.65539e-33
3.82114e-35
2.50898e-37
1.98292e-39
0.594126
0.224237
0.0596693
0.0118261
0.00283823
8.02654e-05
1.27272e-06
1.33409e-08
1.01469e-10
5.77078e-13
3.0593e-15
1.85451e-17
1.12145e-19
4.80774e-22
1.06728e-24
-9.27379e-28
2.77808e-32
8.32809e-44
4.63583e-32
1.51202e-30
8.10983e-32
5.58314e-34
3.44657e-33
1.77488e-29
2.26409e-31
2.14879e-33
1.65332e-35
0.594233
0.223811
0.0590971
0.0114824
0.00264513
6.36191e-05
7.40908e-07
4.70132e-09
2.52465e-11
8.42229e-13
2.72238e-14
4.50849e-16
4.50095e-18
4.23828e-20
5.47075e-22
-9.51676e-25
2.03876e-30
4.49734e-40
3.33754e-28
1.74114e-26
9.88811e-28
8.91224e-30
5.85026e-31
4.98186e-27
8.19501e-29
9.59364e-31
9.20406e-33
0.594354
0.223333
0.0584398
0.0110817
0.00241143
4.45982e-05
2.66389e-07
3.86949e-10
1.09523e-12
8.58658e-15
1.04553e-17
7.13332e-18
2.25735e-19
1.18655e-12
7.70521e-15
8.3711e-18
-2.59329e-24
4.62149e-36
7.42732e-24
2.87651e-22
9.99062e-24
8.71136e-26
3.32958e-28
1.26907e-24
2.48712e-26
3.51416e-28
3.78816e-30
0.594476
0.222906
0.0578406
0.010713
0.0021869
2.84139e-05
3.70209e-08
2.38496e-11
1.04354e-11
5.27819e-07
3.69433e-10
-2.84301e-10
-7.67947e-15
-1.43526e-18
3.46699e-15
7.51525e-15
-2.24148e-20
1.25955e-16
7.39873e-18
1.04056e-19
7.70103e-22
3.23055e-24
4.16073e-22
8.65752e-24
1.27972e-25
1.47e-27
0.594543
0.222646
0.0574777
0.0104897
0.00204106
1.95012e-05
4.40259e-10
2.68543e-11
2.78405e-06
0.00179749
0.00322368
0.0348933
0.00574558
0.000476479
1.89022e-05
4.34462e-07
5.07241e-09
3.91963e-11
2.14739e-13
8.50903e-16
4.17519e-18
1.91826e-20
2.69446e-19
4.47496e-21
6.44721e-23
8.16136e-25
0.594543
0.222647
0.0574776
0.0104893
0.00202253
1.78604e-05
3.95564e-10
2.19844e-11
0.0962606
69.9243
1277.9
11117.2
1.18003
0.0778895
0.00438117
0.000163422
3.88207e-06
6.1034e-08
6.55068e-10
4.77915e-12
2.35405e-14
1.00853e-16
1.75343e-17
2.98633e-19
4.35367e-21
5.48418e-23
0.594475
0.222901
0.0578369
0.0107111
0.00213774
2.32257e-05
2.84781e-09
3.5601e-11
0.0005002
0.00926308
0.000166807
-0.00210309
-0.000385025
9.61063e-05
1.36102e-05
1.12758e-05
3.74553e-08
3.94967e-11
7.74508e-13
7.1363e-15
4.05852e-17
1.41481e-19
6.62128e-20
1.56616e-21
2.52516e-23
3.1116e-25
0.594355
0.22333
0.0584347
0.0110788
0.00234906
3.63574e-05
1.20842e-07
5.16736e-12
6.90961e-15
1.38282e-20
3.27238e-25
3.96737e-21
1.02163e-09
4.36335e-06
8.10827e-09
-1.06335e-10
2.7204e-14
-1.71602e-18
1.94488e-14
1.48041e-13
-1.26334e-20
1.11946e-19
6.4592e-18
6.21087e-19
7.05548e-21
2.88849e-23
3.31253e-22
7.66466e-24
1.16783e-25
1.26678e-27
0.594231
0.223805
0.0590895
0.0114784
0.00258753
5.48296e-05
4.8639e-07
1.86272e-09
3.02797e-11
1.8304e-12
3.77015e-14
3.40995e-16
6.24399e-17
6.77502e-14
1.36555e-15
4.10695e-18
-7.45116e-23
-1.51178e-36
2.35964e-26
7.99585e-23
5.16848e-23
1.00582e-24
4.37119e-27
1.8701e-24
3.86314e-26
4.95547e-28
4.2979e-30
0.594128
0.224229
0.0596612
0.0118213
0.00279405
7.30054e-05
1.01374e-06
8.7189e-09
5.28887e-11
3.72239e-13
5.00879e-15
1.07431e-16
1.30737e-18
8.48945e-21
6.97971e-23
-8.3875e-27
1.71868e-29
3.55763e-42
6.6698e-31
1.35507e-27
3.69413e-27
1.18479e-28
6.48991e-30
1.06558e-26
1.98506e-28
2.09882e-30
1.26088e-32
0.594042
0.224547
0.0600857
0.0120739
0.00294469
8.71146e-05
1.50347e-06
1.76676e-08
1.57818e-10
1.0231e-12
4.46681e-15
1.41329e-17
3.69055e-20
8.25166e-23
1.50488e-25
-3.30565e-28
1.27865e-32
2.38593e-46
3.69201e-36
8.942e-33
1.53519e-31
8.85529e-33
5.85388e-32
5.41292e-29
9.25949e-31
8.15553e-33
3.64134e-35
0.594018
0.224795
0.0603892
0.0122453
0.00304456
9.66078e-05
1.85937e-06
2.49081e-08
2.57218e-10
2.13043e-12
1.3689e-14
6.20858e-17
1.74619e-19
2.62542e-22
2.24443e-25
-5.4577e-28
9.37772e-32
6.47192e-38
6.1781e-41
1.66539e-45
-6.04739e-47
1.81409e-44
1.33106e-40
5.08536e-37
3.42485e-37
1.80894e-34
1.59842e-31
2.66961e-33
2.02665e-35
8.67838e-38
0.593891
0.224921
0.0605738
0.0123508
0.00310611
0.000102408
2.08265e-06
2.96661e-08
3.23776e-10
2.81127e-12
1.96658e-14
1.10118e-16
4.81935e-19
1.57054e-21
3.49409e-24
5.00988e-27
9.57206e-30
1.09317e-30
1.60849e-32
9.56598e-35
3.57868e-37
9.45616e-40
1.73485e-42
1.55603e-43
1.44604e-42
4.96561e-39
1.37339e-34
4.41839e-36
8.76603e-38
1.5084e-39
0.593878
0.224991
0.0606871
0.0124158
0.00314204
0.000105678
2.20885e-06
3.24133e-08
3.63416e-10
3.23283e-12
2.32222e-14
1.35339e-16
6.41143e-19
2.48315e-21
8.04036e-24
2.26476e-26
5.65194e-29
1.35251e-31
3.6385e-34
1.09047e-36
3.4411e-39
9.94475e-42
2.53537e-44
6.73133e-47
5.191e-47
1.72271e-46
1.34843e-37
4.77696e-39
1.04123e-40
2.11077e-42
0.593836
0.225068
0.0607671
0.0124549
0.00316397
0.000107543
2.27807e-06
3.38938e-08
3.84951e-10
3.46834e-12
2.53533e-14
1.52366e-16
7.60817e-19
3.20043e-21
1.1638e-23
3.83064e-26
1.21396e-28
3.78727e-31
1.10004e-33
2.50081e-36
-1.29926e-38
-9.12247e-40
-7.44514e-41
1.81785e-40
8.43713e-40
3.05336e-40
3.54711e-37
3.11047e-38
1.83234e-39
9.03501e-41
0.593805
0.225178
0.060896
0.0125071
0.00317353
0.00010753
2.27251e-06
3.3731e-08
3.81375e-10
3.4213e-12
2.50691e-14
1.55481e-16
9.69445e-19
1.23596e-20
3.92433e-22
1.45054e-23
4.765e-25
1.17912e-26
4.11554e-29
-2.00469e-29
-1.78246e-30
-1.11277e-31
-5.92301e-33
1.65066e-33
1.5551e-33
1.67938e-34
6.39406e-34
3.25344e-35
1.37268e-36
5.18217e-38
0.593588
0.225363
0.0610678
0.0126908
0.00212824
0.000297511
3.56154e-05
3.72248e-06
3.4524e-07
2.87802e-08
2.1787e-09
1.51051e-10
9.66302e-12
5.7481e-13
3.20376e-14
1.68651e-15
8.44328e-17
4.04015e-18
1.85083e-19
8.11119e-21
3.39612e-22
1.3576e-23
5.18133e-25
1.88956e-26
6.59508e-28
2.2064e-29
7.06677e-31
2.16181e-32
6.33059e-34
1.77217e-35
0.593559
0.225463
0.0611694
0.0127359
0.0021371
0.000299468
3.59529e-05
3.76982e-06
3.50679e-07
2.93106e-08
2.22424e-09
1.54597e-10
9.91897e-12
5.91574e-13
3.3022e-14
1.73608e-15
8.64323e-17
4.08998e-18
1.84338e-19
7.91875e-21
3.24216e-22
1.26532e-23
4.70938e-25
1.67343e-26
5.68158e-28
1.84542e-29
5.73967e-31
1.71117e-32
4.89923e-34
1.34609e-35
0.593542
0.225479
0.0611855
0.0127412
0.00213819
0.000299573
3.59591e-05
3.77046e-06
3.5076e-07
2.93205e-08
2.22595e-09
1.54816e-10
9.94432e-12
5.94028e-13
3.32153e-14
1.74808e-15
8.70297e-17
4.11351e-18
1.85025e-19
7.9308e-21
3.24173e-22
1.26429e-23
4.7082e-25
1.67586e-26
5.70802e-28
1.86184e-29
5.82268e-31
1.74663e-32
5.03426e-34
1.39609e-35
0.59352
0.225488
0.0611981
0.0127468
0.00213963
0.0002998
3.59867e-05
3.77377e-06
3.51151e-07
2.93644e-08
2.23034e-09
1.55268e-10
9.98339e-12
5.97127e-13
3.34266e-14
1.76128e-15
8.77446e-17
4.14842e-18
1.86594e-19
7.99737e-21
3.26943e-22
1.27584e-23
4.75625e-25
1.69549e-26
5.78414e-28
1.89089e-29
5.92643e-31
1.78227e-32
5.15718e-34
1.43672e-35
0.594193
0.229432
0.0644667
0.0141956
0.00257085
0.000395938
5.31339e-05
6.32794e-06
6.78501e-07
6.62662e-08
5.95174e-09
4.9556e-10
3.85154e-11
2.81079e-12
1.93608e-13
1.26421e-14
7.85341e-16
4.65368e-17
2.63515e-18
1.4273e-19
7.39879e-21
3.6709e-22
1.74323e-23
7.92311e-25
3.44677e-26
1.43569e-27
5.72656e-29
2.18863e-30
8.0276e-32
2.82244e-33
0.594175
0.229437
0.0644817
0.0142054
0.0025746
0.000396937
5.33329e-05
6.35986e-06
6.82841e-07
6.67835e-08
6.00691e-09
5.00928e-10
3.89973e-11
2.85134e-12
1.96842e-13
1.28887e-14
8.0339e-16
4.78017e-17
2.71951e-18
1.48054e-19
7.71622e-21
3.84926e-22
1.83785e-23
8.39694e-25
3.67084e-26
1.53589e-27
6.15252e-29
2.36033e-30
8.68676e-32
3.06344e-33
0.594134
0.229446
0.0645165
0.014228
0.00258317
0.000399185
5.37772e-05
6.43174e-06
6.9282e-07
6.80047e-08
6.14042e-09
5.14147e-10
4.01978e-11
2.95285e-12
2.04926e-13
1.35021e-14
8.4796e-16
5.09006e-17
2.92478e-18
1.60942e-19
8.4819e-21
4.27917e-22
2.0663e-23
9.54466e-25
4.21695e-26
1.78156e-27
7.20078e-29
2.78525e-30
1.03265e-31
3.66563e-33
0.594054
0.22944
0.0645653
0.0142687
0.00260063
0.00040245
5.4241e-05
6.48915e-06
6.99351e-07
6.8688e-08
6.20571e-09
5.19739e-10
4.06261e-11
2.98249e-12
2.06877e-13
1.36349e-14
8.5804e-16
5.17259e-17
2.99125e-18
1.65916e-19
8.82198e-21
4.49311e-22
2.19086e-23
1.02192e-24
4.55585e-26
1.93994e-27
7.89127e-29
3.06832e-30
1.14256e-31
4.07281e-33
0.593976
0.229396
0.0646072
0.0143228
0.00452662
0.000308338
1.383e-05
4.38184e-07
1.03918e-08
2.01236e-10
4.07815e-12
1.40703e-13
8.10383e-15
5.25244e-16
3.33134e-17
2.02817e-18
1.1861e-19
6.67477e-21
3.61336e-22
1.87966e-23
9.38679e-25
4.50212e-26
2.07268e-27
9.14866e-29
4.00255e-29
5.59139e-30
1.18332e-31
7.21345e-33
3.62653e-34
1.59398e-35
0.593872
0.229387
0.0646596
0.0143645
0.00455408
0.000312349
1.41053e-05
4.48899e-07
1.05733e-08
1.91807e-10
2.7625e-12
3.23418e-14
3.13857e-16
2.57161e-18
1.81453e-20
1.12784e-22
6.33072e-25
3.31643e-27
1.88895e-29
2.31999e-31
7.57222e-33
3.09594e-34
1.25326e-35
4.88871e-37
1.55003e-35
1.76702e-35
1.25129e-34
1.27545e-35
8.49825e-37
4.48341e-38
0.593791
0.229387
0.0647006
0.0143919
0.00457024
0.000315131
1.43449e-05
4.61318e-07
1.10091e-08
2.02805e-10
2.9683e-12
3.52494e-14
3.45273e-16
2.83452e-18
1.99056e-20
1.2316e-22
6.96743e-25
3.68676e-27
1.79691e-29
7.82218e-32
2.99514e-34
1.00723e-36
2.97647e-39
7.86799e-42
9.97266e-42
6.2181e-41
1.87392e-37
2.54609e-38
2.03799e-39
1.21031e-40
0.593699
0.229368
0.0647206
0.0144065
0.00457841
0.000316642
1.44975e-05
4.70795e-07
1.14048e-08
2.14319e-10
3.20718e-12
3.8847e-14
3.84797e-16
3.14686e-18
2.15953e-20
1.28592e-22
7.00839e-25
3.66797e-27
1.80936e-29
7.96993e-32
3.10292e-34
1.08818e-36
3.45384e-39
9.7823e-42
2.42083e-44
9.75374e-46
4.828e-40
7.57243e-41
6.71929e-42
4.1758e-43
0.593589
0.229318
0.0647095
0.0144023
0.00457434
0.000316152
1.45047e-05
4.74635e-07
1.16849e-08
2.25135e-10
3.46977e-12
4.31042e-14
4.30891e-16
3.42832e-18
2.13517e-20
1.05126e-22
1.95454e-25
2.93149e-29
1.20795e-31
6.25212e-34
9.29297e-38
3.473e-40
1.45482e-39
4.77102e-42
8.31466e-45
-7.87422e-46
2.09493e-40
8.14648e-42
2.45263e-43
6.88942e-45
0.593453
0.229217
0.0646469
0.0143661
0.00454939
0.000312066
1.42228e-05
4.65213e-07
1.15956e-08
2.29386e-10
3.64349e-12
4.59963e-14
4.50659e-16
3.28989e-18
1.67885e-20
1.0783e-22
4.21807e-27
1.26919e-36
1.55609e-41
1.27505e-42
3.67878e-45
9.95551e-36
1.17618e-34
1.34667e-36
3.41807e-40
-1.40721e-41
1.33365e-35
1.69425e-37
1.91073e-39
2.16418e-41
0.593294
0.229047
0.0645113
0.0142817
0.00449167
0.000301956
1.34231e-05
4.30049e-07
1.07111e-08
2.18422e-10
3.66038e-12
4.97557e-14
5.39883e-16
4.54769e-18
2.7392e-20
9.56136e-23
1.23318e-26
1.75048e-36
1.18944e-31
3.37063e-30
1.31879e-31
7.54885e-34
2.86802e-35
1.44427e-31
1.18776e-33
5.51445e-36
1.68786e-38
0.593128
0.228808
0.0642855
0.0141359
0.00439012
0.00028344
1.18879e-05
3.59291e-07
8.893e-09
1.99989e-10
3.96668e-12
6.17225e-14
7.07019e-16
6.7715e-18
6.79719e-20
4.75706e-22
1.24062e-25
8.08879e-33
1.62928e-27
1.01594e-25
4.15055e-27
2.90754e-29
8.56235e-32
6.88188e-29
9.87789e-31
1.00302e-32
7.23704e-35
0.592979
0.228524
0.0639901
0.0139381
0.00424726
0.000256582
9.64255e-06
4.44358e-07
1.72116e-09
3.93927e-12
1.65471e-15
2.78778e-17
4.57446e-14
7.24207e-11
2.59932e-13
1.70655e-15
4.11802e-20
-8.13245e-30
8.53736e-23
4.2742e-21
9.32875e-23
5.6716e-25
1.63651e-27
2.27354e-26
4.47675e-28
5.84193e-30
5.81271e-32
0.59287
0.228261
0.0636991
0.0137379
0.00409669
0.000227888
7.29972e-06
2.46629e-07
2.95901e-08
7.09898e-06
2.44494e-08
-3.73502e-09
1.07446e-11
8.79124e-14
2.2973e-14
2.19229e-13
-5.75547e-19
4.97614e-15
1.99465e-16
1.93379e-18
9.24448e-21
2.47157e-23
8.05819e-24
1.58757e-25
2.19384e-27
2.40797e-29
0.592807
0.228094
0.0635135
0.0136098
0.00399496
0.000208494
5.86631e-06
1.40367e-07
0.00125753
0.0708118
0.492912
9.17958
0.041649
0.00103768
2.59258e-05
3.21431e-06
7.89816e-08
8.74412e-10
6.59801e-12
3.40984e-14
1.19563e-16
2.72845e-19
5.50768e-21
8.10526e-23
1.06267e-24
1.2773e-26
0.592811
0.228096
0.0635134
0.0136094
0.00398415
0.000205126
5.61512e-06
1.24383e-07
27.3954
12821.5
254510
3.04962e+06
275.709
10.6945
0.517936
0.0174014
0.000358632
4.68462e-06
4.00643e-08
2.22115e-10
7.78653e-13
1.73765e-15
3.21133e-19
4.67187e-21
6.03348e-23
7.12084e-25
0.592868
0.228257
0.0636957
0.013736
0.00406757
0.000218334
6.4915e-06
1.7065e-07
0.0809256
0.362818
0.0373247
0.87007
0.0283342
6.9528e-05
1.38548e-07
3.95927e-06
3.57194e-08
1.11351e-10
2.97043e-12
3.62389e-14
2.02215e-16
5.75679e-19
1.17751e-21
2.57353e-23
3.97459e-25
5.06573e-27
0.592978
0.228524
0.0639864
0.0139357
0.00421085
0.000244106
8.48742e-06
3.31213e-07
1.72362e-10
3.32156e-20
1.203e-21
1.39911e-15
3.5157e-06
2.45046e-05
5.20694e-08
-5.21217e-10
1.64774e-11
3.73745e-14
4.6735e-14
1.45977e-13
-7.82603e-20
4.80017e-19
7.58314e-17
3.27792e-18
2.82888e-20
9.27869e-23
5.73408e-24
1.37516e-25
2.1943e-27
2.76595e-29
0.593123
0.228803
0.0642804
0.0141329
0.00435822
0.000272568
1.08819e-05
3.13665e-07
7.22101e-09
1.56438e-10
2.47199e-12
1.88403e-14
4.97558e-14
5.28921e-12
8.46707e-14
5.66404e-16
2.68964e-19
2.54559e-31
3.11243e-25
1.24279e-21
2.448e-22
3.14203e-24
1.10279e-26
3.05665e-26
6.65258e-28
1.00256e-29
1.1493e-31
0.593291
0.229043
0.0645058
0.0142786
0.00446911
0.000294497
1.27533e-05
3.98096e-07
9.86288e-09
2.08678e-10
3.78858e-12
5.75656e-14
7.08244e-16
6.90008e-18
5.18565e-20
2.63863e-22
1.55238e-25
4.14769e-35
7.23749e-30
1.68107e-26
1.37958e-26
2.81602e-28
1.16332e-30
1.44085e-28
2.76678e-30
3.39487e-32
3.1966e-34
0.593466
0.229214
0.0646407
0.0143632
0.00453506
0.000307614
1.38571e-05
4.49139e-07
1.11818e-08
2.23192e-10
3.59091e-12
4.57713e-14
4.51967e-16
3.33879e-18
1.71745e-20
1.01438e-22
2.3192e-27
2.07696e-39
1.10452e-34
1.56421e-31
5.02819e-31
1.70044e-32
4.30909e-34
4.72219e-31
8.01052e-33
8.05235e-35
6.02615e-37
0.593585
0.229324
0.0647092
0.0143997
0.00456559
0.000313754
1.43338e-05
4.68656e-07
1.15915e-08
2.25687e-10
3.52034e-12
4.39734e-14
4.33651e-16
3.27583e-18
1.80781e-20
1.29884e-22
2.14651e-26
7.86726e-33
7.25577e-39
4.61649e-39
-1.30235e-45
1.34836e-42
6.21494e-39
4.38597e-36
5.36653e-37
8.8573e-37
9.13427e-34
1.77735e-35
2.00903e-37
1.824e-39
0.593678
0.229357
0.0647179
0.0144045
0.00457295
0.000315422
1.44323e-05
4.69664e-07
1.14418e-08
2.16896e-10
3.27875e-12
4.00009e-14
3.96034e-16
3.18583e-18
2.09205e-20
1.14854e-22
5.70302e-25
2.93045e-27
1.55791e-29
7.23141e-32
2.72105e-34
8.08369e-37
1.81001e-39
3.77463e-42
2.87317e-42
1.55985e-41
1.40026e-37
7.93812e-39
2.78495e-40
7.9269e-42
0.593787
0.229376
0.0646934
0.0143889
0.00456719
0.000314574
1.43321e-05
4.6208e-07
1.10779e-08
2.05345e-10
3.02469e-12
3.60668e-14
3.53003e-16
2.87226e-18
1.98136e-20
1.19846e-22
6.65569e-25
3.48286e-27
1.67329e-29
7.09357e-32
2.61769e-34
8.43673e-37
2.39106e-39
6.02505e-42
1.37257e-44
-4.47066e-47
1.4428e-40
1.79518e-41
5.37241e-42
1.1338e-42
0.593872
0.229385
0.0646564
0.0143624
0.00455241
0.000312451
1.41393e-05
4.51331e-07
1.06721e-08
1.94414e-10
2.8102e-12
3.29634e-14
3.19436e-16
2.6028e-18
1.81922e-20
1.11948e-22
6.24648e-25
3.2281e-27
1.53849e-29
6.63388e-32
2.55194e-34
8.83274e-37
3.38206e-39
3.67895e-41
1.07411e-42
8.15616e-44
-7.22812e-39
2.82669e-38
9.9649e-39
1.4783e-39
0.593972
0.229393
0.0646043
0.0143207
0.00452776
0.000308616
1.38396e-05
4.37065e-07
1.02034e-08
1.83256e-10
2.61205e-12
3.02693e-14
2.91895e-16
2.43615e-18
2.09613e-20
3.51546e-22
1.40731e-23
7.08945e-25
3.55949e-26
1.72283e-27
7.99754e-29
3.56063e-30
1.51975e-31
6.23408e-33
2.4561e-34
9.25425e-36
-4.82574e-34
2.40952e-34
3.16789e-35
2.48031e-36
0.594051
0.229437
0.0645624
0.0142668
0.00259979
0.000402214
5.4185e-05
6.47833e-06
6.97523e-07
6.84196e-08
6.17058e-09
5.15698e-10
4.02061e-11
2.94244e-12
2.03364e-13
1.3349e-14
8.36325e-16
5.01785e-17
2.88727e-18
1.59281e-19
8.42049e-21
4.26282e-22
2.06692e-23
9.60125e-25
4.27612e-26
1.82634e-27
7.48456e-29
2.94348e-30
1.11226e-31
4.03197e-33
0.594132
0.229442
0.0645128
0.014226
0.00258233
0.000398932
5.3718e-05
6.42017e-06
6.90919e-07
6.77308e-08
6.10563e-09
5.10228e-10
3.97937e-11
2.91476e-12
2.01605e-13
1.32335e-14
8.27758e-16
4.94729e-17
2.82969e-18
1.54993e-19
8.13028e-21
4.08364e-22
1.96482e-23
9.0573e-25
4.0019e-26
1.69581e-27
6.89439e-29
2.6901e-30
1.00867e-31
3.62853e-33
0.594172
0.229433
0.064479
0.0142036
0.00257384
0.0003967
5.32759e-05
6.34867e-06
6.81003e-07
6.65208e-08
5.97441e-09
4.97198e-10
3.86195e-11
2.81593e-12
1.93814e-13
1.26469e-14
7.85364e-16
4.65454e-17
2.63738e-18
1.43013e-19
7.42421e-21
3.69121e-22
1.75793e-23
8.02279e-25
3.51067e-26
1.47324e-27
5.93289e-29
2.29305e-30
8.51808e-32
3.0379e-33
0.59419
0.229429
0.0644641
0.0141939
0.00257006
0.000395695
5.30761e-05
6.3168e-06
6.76675e-07
6.60069e-08
5.91931e-09
4.91966e-10
3.81488e-11
2.77694e-12
1.90703e-13
1.24119e-14
7.68336e-16
4.53609e-17
2.55896e-18
1.38089e-19
7.13408e-21
3.52931e-22
1.67285e-23
7.59926e-25
3.30964e-26
1.38303e-27
5.54549e-29
2.13468e-30
7.89963e-32
2.80745e-33
0.593161
0.227815
0.063329
0.0137193
0.0024324
0.000365286
4.76565e-05
5.50629e-06
5.72046e-07
5.40922e-08
4.70269e-09
3.79093e-10
2.85406e-11
2.01931e-12
1.34993e-13
8.56558e-15
5.17788e-16
2.99022e-17
1.65287e-18
8.75468e-20
4.44667e-21
2.16622e-22
1.01232e-23
4.53885e-25
1.95285e-26
8.06523e-28
3.19803e-29
1.21823e-30
4.46442e-32
1.57339e-33
0.593166
0.227822
0.0633346
0.0137225
0.00243366
0.000365634
4.77304e-05
5.51895e-06
5.73852e-07
5.43162e-08
4.72735e-09
3.81541e-10
2.87646e-11
2.03849e-12
1.36549e-13
8.68644e-15
5.26782e-16
3.05405e-17
1.69579e-18
9.02701e-20
4.60888e-21
2.25728e-22
1.06063e-23
4.78033e-25
2.06701e-26
8.57712e-28
3.41616e-29
1.3066e-30
4.806e-32
1.69956e-33
0.593172
0.227835
0.0633459
0.0137292
0.00243621
0.000366349
4.78826e-05
5.54498e-06
5.77604e-07
5.4786e-08
4.77959e-09
3.86787e-10
2.92482e-11
2.08009e-12
1.39943e-13
8.95111e-15
5.4656e-16
3.19512e-17
1.79111e-18
9.63398e-20
4.97223e-21
2.46219e-22
1.16978e-23
5.32955e-25
2.32865e-26
9.75785e-28
3.92307e-29
1.51376e-30
5.61421e-32
2.00082e-33
0.593187
0.227855
0.0633622
0.0137382
0.00244062
0.000366514
4.78182e-05
5.53036e-06
5.75744e-07
5.46107e-08
4.76657e-09
3.85999e-10
2.92135e-11
2.08003e-12
1.40204e-13
8.99756e-15
5.52404e-16
3.25498e-17
1.84324e-18
1.00305e-19
5.24218e-21
2.62953e-22
1.26551e-23
5.83866e-25
2.58088e-26
1.09277e-27
4.4338e-29
1.72468e-30
6.44068e-32
2.30975e-33
0.593214
0.227886
0.0633827
0.0137541
0.00425035
0.000277806
1.18067e-05
3.5242e-07
7.89502e-09
1.46273e-10
2.95296e-12
1.05352e-13
6.07939e-15
3.86653e-16
2.39957e-17
1.43066e-18
8.20253e-20
4.53065e-21
2.41068e-22
1.23434e-23
6.07953e-25
2.87909e-26
1.31177e-27
2.423e-28
5.47908e-29
4.23914e-30
7.60309e-32
4.50674e-33
2.23617e-34
9.779e-36
0.593229
0.227902
0.0633943
0.0137617
0.00425774
0.000279325
1.19332e-05
3.5782e-07
7.96456e-09
1.3731e-10
1.89409e-12
2.14425e-14
2.03447e-16
1.64916e-18
1.16479e-20
7.32191e-23
4.188e-25
2.24834e-27
1.31737e-29
1.62945e-31
5.24198e-33
2.1265e-34
8.57736e-36
4.76038e-35
1.28133e-34
2.71239e-35
9.52223e-35
9.32963e-36
6.10456e-37
3.19195e-38
0.593244
0.227907
0.0633954
0.0137639
0.00426178
0.000280516
1.20585e-05
3.6511e-07
8.23921e-09
1.44573e-10
2.03504e-12
2.35196e-14
2.27366e-16
1.87118e-18
1.33816e-20
8.5399e-23
5.02059e-25
2.78349e-27
1.44521e-29
6.86313e-32
2.9529e-34
1.15309e-36
4.09102e-39
4.00817e-41
4.48852e-40
2.1213e-40
1.66066e-37
2.20861e-38
1.76927e-39
1.06266e-40
0.593254
0.227896
0.0633766
0.0137554
0.00426002
0.000281014
1.21503e-05
3.7197e-07
8.54517e-09
1.53689e-10
2.22829e-12
2.65527e-14
2.63644e-16
2.20933e-18
1.59051e-20
1.01668e-22
6.10349e-25
3.62661e-27
2.10638e-29
1.13287e-31
5.50809e-34
2.41758e-36
9.56279e-39
3.38482e-41
1.11965e-43
4.93491e-45
4.5278e-40
7.24579e-41
6.64986e-42
4.33982e-43
0.593263
0.227859
0.0633257
0.0137285
0.00424833
0.000280217
1.21658e-05
3.76872e-07
8.85886e-09
1.65041e-10
2.50071e-12
3.12179e-14
3.22957e-16
2.77347e-18
1.98197e-20
1.20078e-22
3.19761e-25
5.44758e-29
2.36155e-31
1.15163e-33
1.74782e-37
6.35178e-41
8.53781e-43
1.94642e-44
1.35795e-46
-6.21284e-49
1.82182e-42
2.75082e-43
2.62985e-44
1.75474e-45
0.593273
0.22778
0.0632262
0.0136725
0.0042201
0.000277022
1.20196e-05
3.76014e-07
9.08832e-09
1.77881e-10
2.87647e-12
3.84916e-14
4.24069e-16
3.79137e-18
2.63709e-20
2.44228e-22
1.89141e-26
7.08935e-36
6.83225e-42
5.25697e-42
4.86089e-48
1.64927e-38
4.79637e-38
1.16606e-40
1.31019e-44
-6.01336e-44
2.20477e-38
4.13881e-40
6.64339e-42
1.02339e-43
0.593287
0.227647
0.0630577
0.0135744
0.00416651
0.000269843
1.15677e-05
3.61763e-07
8.99072e-09
1.87913e-10
3.33614e-12
4.99704e-14
6.23276e-16
6.2899e-18
4.6893e-20
1.93988e-22
2.42629e-26
3.49268e-39
4.56968e-34
2.99782e-33
2.39554e-35
3.95428e-38
3.87902e-38
6.29175e-35
4.43934e-37
3.26536e-39
2.05186e-41
0.593302
0.227459
0.062813
0.0134264
0.00408047
0.000256936
1.0615e-05
3.2061e-07
7.89566e-09
1.77186e-10
3.5527e-12
5.33053e-14
5.38855e-16
3.84985e-18
2.22933e-20
9.12568e-23
1.70693e-26
1.28941e-34
3.7009e-29
2.93591e-28
3.20318e-30
8.10099e-33
1.08406e-35
3.91098e-33
4.40608e-35
2.88123e-37
2.52557e-39
0.593339
0.227235
0.0625166
0.0132399
0.00396489
0.000237822
9.01217e-06
4.19594e-07
1.54827e-09
3.0737e-12
8.2666e-16
8.38454e-18
2.14728e-16
3.05488e-13
8.21459e-16
5.41645e-18
5.92001e-23
-7.17578e-32
2.08903e-22
2.25786e-23
1.66512e-25
4.69169e-28
7.3285e-31
2.55217e-30
5.01987e-32
6.48927e-34
7.07298e-36
0.593369
0.227029
0.0622361
0.0130589
0.00384607
0.000216714
7.11113e-06
2.29204e-07
7.52563e-11
1.19128e-07
1.2688e-10
-5.48527e-11
1.14464e-14
2.60404e-16
2.69648e-15
8.99737e-16
-1.10248e-20
6.06024e-17
6.37363e-19
3.12574e-21
8.48658e-24
1.40942e-26
1.4775e-27
2.77803e-29
3.9569e-31
5.52121e-33
0.593389
0.226902
0.0620631
0.0129464
0.00376744
0.000202275
5.91766e-06
1.37191e-07
3.82094e-06
0.00361573
0.00413489
0.0573909
0.000104201
2.81229e-06
8.03009e-08
1.23145e-08
2.3943e-10
1.90201e-12
9.58234e-15
3.2818e-17
7.56866e-20
1.18291e-22
2.03634e-24
3.26616e-26
4.84209e-28
6.76433e-30
0.593391
0.226902
0.0620614
0.0129458
0.00375923
0.000199623
5.70066e-06
1.23795e-07
0.088083
125.572
3229.67
28204
1.75514
0.0566282
0.00248476
7.02207e-05
1.11731e-06
1.0383e-08
5.93699e-11
2.13339e-13
5.1844e-16
8.74863e-19
1.47227e-22
2.35212e-24
3.45975e-26
4.77784e-28
0.59337
0.227026
0.0622319
0.0130568
0.00382394
0.00020927
6.40798e-06
1.61368e-07
0.000252956
0.0127545
0.000288848
0.00533074
2.71041e-05
2.14385e-07
5.60798e-09
1.35785e-08
1.84805e-10
7.10076e-13
7.69879e-15
4.97975e-17
1.7941e-19
3.86342e-22
4.62362e-25
1.18371e-26
2.2463e-28
3.61225e-30
0.593334
0.227229
0.0625107
0.0132366
0.0039371
0.000228344
8.05885e-06
3.04012e-07
1.31466e-10
1.47153e-19
2.30406e-24
2.99825e-19
9.03413e-09
5.99036e-08
5.04612e-11
-1.34256e-11
1.23061e-14
7.35055e-17
3.9159e-17
3.05815e-17
-9.6214e-23
2.78598e-18
4.4521e-19
6.44643e-21
3.26734e-23
8.07811e-26
1.84779e-27
5.75647e-29
1.22604e-30
2.09458e-32
0.593307
0.227453
0.0628066
0.0134228
0.00405586
0.000248955
9.89409e-06
2.84277e-07
6.21219e-09
1.28525e-10
1.73257e-12
8.25387e-15
4.94457e-16
2.01171e-14
2.54092e-16
1.15754e-18
3.26803e-22
-7.62158e-31
4.56986e-26
1.01129e-23
4.73183e-25
3.31676e-27
8.77255e-30
7.64752e-30
2.37401e-31
5.00991e-33
7.88642e-35
0.593287
0.227644
0.0630511
0.0135707
0.00414859
0.000264364
1.11326e-05
3.43484e-07
8.57077e-09
1.85762e-10
3.56387e-12
5.89236e-14
8.04423e-16
8.86963e-18
7.31721e-20
3.40874e-22
5.25509e-26
1.8671e-37
2.18527e-32
6.51613e-29
1.48747e-29
1.64106e-31
4.54992e-34
2.21886e-32
6.12266e-34
1.14064e-35
1.31576e-37
0.593289
0.227786
0.0632209
0.0136691
0.00420812
0.000273609
1.17841e-05
3.68331e-07
9.00929e-09
1.81481e-10
3.05328e-12
4.26054e-14
4.88368e-16
4.50071e-18
3.10803e-20
2.45129e-22
5.12525e-27
5.76202e-42
8.9228e-38
1.52529e-34
1.91795e-34
3.35631e-36
8.00426e-38
4.62222e-35
6.58452e-37
7.10855e-39
6.21669e-41
0.593249
0.227856
0.0633219
0.0137251
0.00424083
0.000278139
1.20448e-05
3.74117e-07
8.8918e-09
1.68991e-10
2.62953e-12
3.37525e-14
3.57327e-16
3.09876e-18
2.16275e-20
2.18996e-22
6.59491e-26
3.36073e-32
1.48283e-38
3.97005e-39
-1.94862e-46
1.93166e-43
7.42563e-42
8.49636e-40
6.26678e-41
1.46854e-40
1.98471e-36
5.2516e-38
9.11282e-40
1.41589e-41
0.593257
0.227878
0.0633701
0.0137527
0.00425469
0.000279768
1.20879e-05
3.71211e-07
8.59789e-09
1.56698e-10
2.30971e-12
2.79857e-14
2.81395e-16
2.36677e-18
1.68459e-20
1.0476e-22
6.03621e-25
3.56948e-27
2.19962e-29
1.15201e-31
4.59042e-34
1.36207e-36
3.04671e-39
5.20387e-42
7.17009e-45
1.0885e-45
2.66917e-40
2.15576e-41
1.15789e-42
5.60577e-44
0.593245
0.227904
0.0633878
0.01376
0.0042579
0.000279714
1.20238e-05
3.64969e-07
8.28174e-09
1.46507e-10
2.0819e-12
2.42866e-14
2.36349e-16
1.94841e-18
1.3878e-20
8.8009e-23
5.19147e-25
2.95365e-27
1.59904e-29
7.96158e-32
3.58793e-34
1.45852e-36
5.34111e-39
1.7634e-41
5.27514e-44
-6.95465e-47
2.67843e-39
6.96516e-40
9.01691e-41
8.18131e-42
0.593231
0.2279
0.0633899
0.0137588
0.00425516
0.000278793
1.19152e-05
3.57907e-07
7.99334e-09
1.3847e-10
1.9207e-12
2.18486e-14
2.07994e-16
1.6875e-18
1.19107e-20
7.48798e-23
4.30183e-25
2.3004e-27
1.14274e-29
5.19973e-32
2.1491e-34
8.16154e-37
3.31659e-39
3.09515e-41
8.278e-43
-5.76298e-43
3.73235e-36
6.49424e-37
6.14012e-38
4.4336e-39
0.593215
0.227883
0.0633781
0.0137511
0.00424878
0.000277446
1.17828e-05
3.50781e-07
7.74046e-09
1.32108e-10
1.80154e-12
2.01556e-14
1.89632e-16
1.56713e-18
1.37868e-20
2.44956e-22
9.94441e-24
4.95227e-25
2.45578e-26
1.17498e-27
5.40759e-29
2.39081e-30
1.01793e-31
4.17406e-33
1.64653e-34
6.24259e-36
9.89294e-33
9.38448e-34
6.00249e-35
3.22377e-36
0.593189
0.227851
0.0633575
0.0137353
0.00243948
0.000366206
4.77515e-05
5.51847e-06
5.73892e-07
5.43586e-08
4.73588e-09
3.82664e-10
2.88869e-11
2.05067e-12
1.37774e-13
8.80929e-15
5.38796e-16
3.16233e-17
1.7838e-18
9.66736e-20
5.0325e-21
2.51462e-22
1.20658e-23
5.55986e-25
2.46223e-26
1.04846e-27
4.29397e-29
1.69163e-30
6.41661e-32
2.34224e-33
0.593174
0.227831
0.063341
0.0137262
0.00243503
0.000366018
4.78096e-05
5.53191e-06
5.75603e-07
5.45179e-08
4.74781e-09
3.83432e-10
2.89214e-11
2.05112e-12
1.37559e-13
8.76922e-15
5.33567e-16
3.10792e-17
1.73588e-18
9.30446e-20
4.78688e-21
2.36404e-22
1.1212e-23
5.1079e-25
2.23656e-26
9.41805e-28
3.81593e-29
1.48794e-30
5.59029e-32
2.02222e-33
0.593166
0.227819
0.0633301
0.0137197
0.00243252
0.000365309
4.76579e-05
5.50592e-06
5.7186e-07
5.40512e-08
4.69656e-09
3.78237e-10
2.84489e-11