/*--------------------------------*- C++ -*----------------------------------*\
  =========                 |
  \\      /  F ield         | OpenFOAM: The Open Source CFD Toolbox
   \\    /   O peration     | Website:  https://openfoam.org
    \\  /    A nd           | Version:  10
     \\/     M anipulation  |
\*---------------------------------------------------------------------------*/
FoamFile
{
    format      ascii;
    class       volScalarField;
    location    "2";
    object      T;
}
// * * * * * * * * * * * * * * * * * * * * * * * * * * * * * * * * * * * * * //

dimensions      [0 0 0 1 0 0 0];

internalField   nonuniform List<scalar> 
96305
(
0.329751
0.0610128
0.00772306
0.000737093
5.62396e-05
3.56874e-06
1.93705e-07
9.18303e-09
3.86493e-10
1.46345e-11
5.0404e-13
1.59379e-14
4.66412e-16
1.27228e-17
3.25567e-19
7.85903e-21
1.79803e-22
3.91281e-24
8.11908e-26
1.60868e-27
3.04612e-29
5.51382e-31
9.54255e-33
1.57907e-34
2.49868e-36
3.78445e-38
5.4855e-40
7.60949e-42
1.01193e-43
1.28744e-45
0.329756
0.061008
0.00772085
0.000736697
5.61987e-05
3.56603e-06
1.93562e-07
9.17536e-09
3.86087e-10
1.46141e-11
5.03095e-13
1.58972e-14
4.64826e-16
1.26673e-17
3.23855e-19
7.81316e-21
1.78745e-22
3.89202e-24
8.08499e-26
1.60433e-27
3.0431e-29
5.51835e-31
9.56822e-33
1.58642e-34
2.51535e-36
3.81655e-38
5.54142e-40
7.69514e-42
1.0238e-43
1.30222e-45
0.329761
0.0610011
0.00771785
0.000736162
5.61496e-05
3.56358e-06
1.93476e-07
9.1723e-09
3.85986e-10
1.46111e-11
5.02907e-13
1.58828e-14
4.63963e-16
1.26282e-17
3.22483e-19
7.77587e-21
1.77998e-22
3.88312e-24
8.09046e-26
1.61099e-27
3.06637e-29
5.57736e-31
9.69345e-33
1.60959e-34
2.55264e-36
3.86784e-38
5.60431e-40
7.76041e-42
1.02855e-43
1.30114e-45
0.329768
0.0609732
0.00770552
0.000733793
5.59262e-05
3.54515e-06
1.92273e-07
9.10333e-09
3.82616e-10
1.44687e-11
4.97534e-13
1.56954e-14
4.57858e-16
1.24466e-17
3.17794e-19
7.68148e-21
1.76999e-22
3.90618e-24
8.27082e-26
1.67967e-27
3.26877e-29
6.09112e-31
1.08673e-32
1.85637e-34
3.03368e-36
4.74256e-38
7.07325e-40
1.00205e-41
1.35296e-43
1.73835e-45
0.329826
0.0608979
0.00767355
0.000720439
8.68724e-05
6.28831e-07
2.73991e-09
8.98834e-12
5.11418e-14
1.11284e-15
3.20256e-17
8.62432e-19
2.12681e-20
4.79134e-22
9.77623e-24
1.76088e-25
2.59056e-27
2.28148e-29
-2.88078e-31
-2.26004e-32
-7.96784e-34
-2.23034e-35
7.04175e-36
3.77188e-37
9.50041e-39
1.86239e-40
1.00241e-42
2.1337e-44
3.77487e-46
5.84939e-48
0.329833
0.060864
0.00765767
0.000717631
8.6512e-05
6.36436e-07
2.84514e-09
8.90234e-12
2.12361e-14
4.02523e-17
6.21653e-20
7.94325e-23
8.50263e-26
7.63971e-29
2.77726e-32
-8.71643e-34
-2.29864e-35
-5.4272e-37
-1.20499e-38
-2.53038e-40
-5.09166e-42
-9.87829e-44
5.10883e-42
1.38891e-42
7.37979e-44
2.09678e-45
1.01872e-45
3.38738e-47
7.58474e-49
1.34998e-50
0.329842
0.0608401
0.00764541
0.000714878
8.59366e-05
6.28858e-07
2.79227e-09
8.66295e-12
2.05254e-14
3.86259e-17
5.89142e-20
7.34851e-23
7.53382e-26
6.40626e-29
4.62843e-32
2.9938e-35
1.83168e-38
1.03831e-41
5.18912e-45
2.01051e-48
-5.33537e-51
9.38645e-53
2.04085e-49
1.98545e-48
3.23941e-49
1.7295e-50
1.04589e-48
4.38257e-50
1.11764e-51
2.0991e-53
0.329847
0.0608063
0.00762757
0.000710681
8.49745e-05
6.12761e-07
2.66727e-09
8.10508e-12
1.88451e-14
3.48307e-17
5.19088e-20
6.23673e-23
5.99851e-26
4.57091e-29
2.72163e-32
1.21978e-35
4.60715e-39
2.80525e-42
3.07169e-45
3.58876e-48
9.8176e-51
1.16392e-53
7.83091e-56
1.1506e-57
3.49188e-56
1.4449e-56
9.52045e-52
4.65822e-53
1.32452e-54
2.62148e-56
0.329856
0.0607537
0.00759964
0.000703834
8.33272e-05
5.8369e-07
2.44069e-09
7.1051e-12
1.58987e-14
2.84958e-17
4.10763e-20
4.59479e-23
3.70024e-26
1.88559e-29
4.88503e-33
8.59835e-37
-9.27163e-41
-1.00234e-43
-8.47139e-47
-6.02389e-50
-4.02646e-53
7.05638e-51
3.61279e-50
2.51975e-53
1.28583e-56
-2.01414e-53
8.85125e-48
1.00558e-49
8.89924e-52
6.92624e-54
0.329858
0.0606739
0.00755653
0.00069298
8.06241e-05
5.34823e-07
2.06559e-09
5.49901e-12
1.13471e-14
1.82914e-17
2.05687e-20
1.40094e-23
5.19169e-27
1.10324e-30
2.39329e-34
-3.11209e-37
1.00354e-44
1.74259e-53
4.39851e-57
-5.50481e-62
-8.21369e-61
2.28019e-45
5.06829e-44
1.73076e-46
8.80723e-51
-1.17903e-49
1.5269e-42
3.97876e-45
1.19249e-47
4.30979e-50
0.329859
0.0605588
0.00749354
0.000676838
7.64883e-05
4.59747e-07
1.51704e-09
3.31644e-12
5.27408e-15
6.20217e-18
6.55506e-21
7.18077e-24
7.55502e-27
6.2312e-30
3.19869e-33
3.96367e-37
2.07206e-43
1.66913e-54
1.05273e-40
3.52366e-39
4.05826e-41
5.95008e-44
3.42357e-43
8.97232e-39
5.2056e-41
2.2499e-43
7.88354e-46
0.329861
0.060407
0.00740967
0.000654984
7.07253e-05
3.58118e-07
8.62836e-10
1.14587e-12
1.24815e-15
5.94823e-18
3.78312e-20
1.30105e-22
2.6907e-25
3.44998e-25
2.30288e-27
1.32587e-28
5.7486e-36
6.32901e-50
3.76799e-36
1.96108e-34
2.36368e-36
4.53261e-39
1.24557e-40
5.5628e-36
4.15872e-38
2.21486e-40
9.66183e-43
0.32986
0.0602348
0.00731289
0.000629481
6.37968e-05
2.44671e-07
2.98591e-10
9.2455e-14
2.68247e-18
-1.1565e-21
-4.07907e-24
9.13999e-25
-1.91635e-27
1.23638e-16
1.74561e-19
3.31979e-20
1.23619e-27
-1.12954e-43
5.76667e-31
1.60326e-29
1.15786e-31
2.13199e-34
1.70545e-37
3.13935e-33
2.79356e-35
1.79193e-37
8.76946e-40
0.329865
0.0600783
0.00722434
0.000606023
5.72007e-05
1.50951e-07
3.91333e-11
3.16625e-16
4.95769e-19
2.73557e-10
2.41175e-13
-3.54065e-12
2.00666e-16
-6.28667e-23
1.75649e-20
2.71481e-20
-6.12178e-26
1.61837e-22
2.15766e-24
6.07236e-27
9.30147e-30
8.17562e-33
2.28873e-30
2.15936e-32
1.44558e-34
7.52518e-37
0.329861
0.0599829
0.00717075
0.000591878
5.2953e-05
1.01012e-07
2.7184e-13
1.06883e-15
1.02773e-11
4.90447e-06
3.79026e-05
0.00143972
0.000103442
2.01623e-06
1.73428e-08
8.22291e-11
1.98064e-13
3.13181e-16
3.47913e-19
2.77263e-22
2.64096e-25
2.43448e-28
3.34144e-27
2.49323e-29
1.62095e-31
9.2792e-34
0.329861
0.0599835
0.00717074
0.000591854
5.23942e-05
9.20118e-08
2.31741e-13
8.50294e-16
6.44023e-06
0.958539
83.5155
3104.26
0.051691
0.000738649
1.03952e-05
9.24927e-08
4.90752e-10
1.66184e-12
3.76691e-15
5.74359e-18
5.87606e-21
5.26083e-24
4.16477e-25
3.17491e-27
2.08048e-29
1.18044e-31
0.329863
0.0600767
0.00722379
0.000605902
5.57227e-05
1.21765e-07
2.75265e-12
1.47865e-15
2.63409e-09
2.38176e-05
3.51496e-07
-0.000588034
-7.98229e-05
-8.21979e-07
5.11945e-09
2.09008e-09
1.30889e-12
2.86125e-16
1.23639e-18
2.25887e-21
2.48316e-24
1.70125e-27
6.85113e-28
7.39896e-30
5.39928e-32
3.00814e-34
0.329861
0.0602335
0.00731214
0.000629291
6.1913e-05
1.96788e-07
1.31885e-10
-1.2118e-15
2.89553e-21
1.09129e-28
-3.08499e-33
3.98474e-31
5.80622e-17
2.19513e-09
8.3429e-13
-1.60259e-12
-4.73356e-17
-6.8991e-23
5.76316e-20
5.31486e-19
-6.29649e-26
2.62865e-26
1.88302e-24
3.58554e-26
8.09924e-29
6.75457e-32
1.53564e-30
1.62389e-32
1.12334e-34
5.52182e-37
0.329859
0.060405
0.00740855
0.000654723
6.89711e-05
3.05734e-07
5.58733e-10
4.50643e-13
1.10021e-15
1.25877e-17
5.22409e-20
9.54387e-23
1.91831e-22
7.25214e-18
3.10926e-20
7.62522e-21
9.18613e-27
-1.82316e-44
2.79227e-34
4.35839e-30
5.80692e-31
2.29072e-33
2.04685e-36
3.90138e-33
3.68795e-35
2.15218e-37
8.47225e-40
0.32986
0.060556
0.00749234
0.000676526
7.51248e-05
4.1547e-07
1.19764e-09
2.15001e-12
2.73529e-15
3.71212e-18
7.99133e-21
3.15469e-23
8.04432e-26
3.09004e-26
2.55657e-28
2.12994e-29
5.43897e-35
2.71346e-52
1.42594e-39
1.35659e-35
8.44931e-36
5.54508e-38
1.19723e-39
1.00474e-35
8.57379e-38
4.12782e-40
1.12674e-42
0.329855
0.0606691
0.00755452
0.000692601
7.96401e-05
5.02277e-07
1.80729e-09
4.42571e-12
8.26115e-15
1.11212e-17
9.89913e-21
6.16733e-24
2.99203e-27
1.94028e-30
5.57245e-33
1.74396e-36
9.58127e-41
3.05691e-57
1.24036e-45
1.34027e-41
7.26845e-41
8.64353e-43
5.14596e-42
2.31203e-38
1.81366e-40
7.28147e-43
1.47777e-45
0.329883
0.0607571
0.00759909
0.00070355
8.26501e-05
5.61499e-07
2.25911e-09
6.30379e-12
1.35709e-14
2.34415e-17
3.13007e-20
2.91711e-23
1.64309e-26
4.63834e-30
6.61972e-34
-6.54134e-37
1.14323e-42
1.4858e-51
4.17807e-55
-3.94176e-59
-1.71362e-60
4.80152e-55
1.58742e-50
4.91202e-47
6.18813e-48
7.16317e-45
3.08993e-41
2.37015e-43
8.21801e-46
1.60261e-48
0.329823
0.0608044
0.00762639
0.000710316
8.45126e-05
5.98045e-07
2.5466e-09
7.55806e-12
1.71798e-14
3.10668e-17
4.52043e-20
5.24769e-23
4.7299e-26
3.13305e-29
1.37792e-32
3.70216e-36
1.32031e-39
3.06525e-41
9.49045e-44
1.17537e-46
9.16719e-50
5.0821e-53
1.9901e-56
3.05302e-54
5.60735e-54
5.85197e-50
1.21586e-44
1.79529e-46
1.63458e-48
1.29277e-50
0.329842
0.0608327
0.00764346
0.000714513
8.56028e-05
6.18772e-07
2.71055e-09
8.29019e-12
1.93546e-14
3.58501e-17
5.35889e-20
6.48648e-23
6.35712e-26
5.05988e-29
3.33341e-32
1.88455e-35
9.26547e-39
4.30116e-42
2.27055e-45
1.36283e-48
8.51686e-52
4.95763e-55
1.85773e-58
-6.38438e-60
1.21824e-58
-1.27904e-54
5.48883e-48
8.94304e-50
9.00881e-52
8.58089e-54
0.329834
0.0608622
0.00765633
0.000717238
8.6282e-05
6.30692e-07
2.80118e-09
8.68788e-12
2.0546e-14
3.85452e-17
5.86581e-20
7.33176e-23
7.59739e-26
6.60618e-29
4.93591e-32
3.30741e-35
1.9997e-38
-1.34675e-41
-5.28897e-43
-1.00085e-44
-1.77426e-46
-3.11277e-48
-1.00893e-49
-3.35744e-50
1.3429e-49
2.23704e-50
5.4637e-47
2.26578e-48
6.25696e-50
1.44115e-51
0.329827
0.0608954
0.0076722
0.000720087
8.65574e-05
6.30303e-07
2.79114e-09
8.63248e-12
2.03131e-14
3.79569e-17
5.87145e-20
9.13619e-23
2.9306e-25
-1.44005e-27
-1.95111e-28
-8.12478e-30
-2.57917e-31
-7.06894e-33
-1.78859e-34
-4.18091e-36
-9.22565e-38
-1.9448e-39
-3.92801e-41
8.78025e-43
1.18814e-42
5.89653e-44
2.14869e-43
5.20986e-45
1.03002e-46
1.81209e-48
0.329769
0.0609707
0.00770418
0.000733446
5.58691e-05
3.53855e-06
1.91673e-07
9.05886e-09
3.79842e-10
1.43189e-11
4.90422e-13
1.53952e-14
4.46353e-16
1.20472e-17
3.05038e-19
7.30408e-21
1.66525e-22
3.6325e-24
7.59277e-26
1.5195e-27
2.90756e-29
5.31632e-31
9.28885e-33
1.55236e-34
2.48546e-36
3.81829e-38
5.6212e-40
7.91194e-42
1.06701e-43
1.37687e-45
0.329761
0.0609989
0.00771646
0.000735804
5.60907e-05
3.55666e-06
1.92844e-07
9.12514e-09
3.83042e-10
1.44522e-11
4.95379e-13
1.55655e-14
4.51917e-16
1.22095e-17
3.09098e-19
7.37915e-21
1.67035e-22
3.59834e-24
7.39225e-26
1.44916e-27
2.71071e-29
4.83856e-31
8.24552e-33
1.34296e-34
2.09207e-36
3.12107e-38
4.46301e-40
6.12322e-42
8.075e-44
1.0228e-45
0.329757
0.0610058
0.00771962
0.000736355
5.61415e-05
3.55922e-06
1.9294e-07
9.12899e-09
3.83193e-10
1.44583e-11
4.95774e-13
1.55873e-14
4.53048e-16
1.22593e-17
3.10882e-19
7.42939e-21
1.68167e-22
3.61845e-24
7.41849e-26
1.45112e-27
2.71001e-29
4.83435e-31
8.24377e-33
1.34512e-34
2.10246e-36
3.15035e-38
4.53059e-40
6.25578e-42
8.30757e-44
1.06133e-45
0.329751
0.0610105
0.00772173
0.000736742
5.61815e-05
3.56187e-06
1.93082e-07
9.13676e-09
3.83619e-10
1.44803e-11
4.96779e-13
1.56344e-14
4.54891e-16
1.23255e-17
3.12926e-19
7.48725e-21
1.6959e-22
3.65003e-24
7.48313e-26
1.46362e-27
2.73376e-29
4.87961e-31
8.32996e-33
1.36125e-34
2.13118e-36
3.20071e-38
4.61345e-40
6.38711e-42
8.51161e-44
1.09162e-45
0.329934
0.0621826
0.00818327
0.000829673
6.86229e-05
4.80707e-06
2.9281e-07
1.58135e-08
7.68706e-10
3.4043e-11
1.38712e-12
5.24318e-14
1.85147e-15
6.14461e-17
1.92666e-18
5.73288e-20
1.62459e-21
4.39624e-23
1.13802e-24
2.82074e-26
6.69817e-28
1.52385e-29
3.32139e-31
6.93546e-33
1.38748e-34
2.66034e-36
4.88949e-38
8.61935e-40
1.45965e-41
2.37197e-43
0.329929
0.0621867
0.00818587
0.00083037
6.87385e-05
4.82061e-06
2.94008e-07
1.58995e-08
7.73952e-10
3.43244e-11
1.40065e-12
5.30265e-14
1.87563e-15
6.23674e-17
1.96e-18
5.84837e-20
1.66307e-21
4.51916e-23
1.17544e-24
2.92869e-26
6.99265e-28
1.59965e-29
3.50584e-31
7.35957e-33
1.47966e-34
2.85e-36
5.26079e-38
9.30927e-40
1.58187e-41
2.57839e-43
0.329918
0.0621954
0.00819175
0.000831925
6.8996e-05
4.85054e-06
2.96659e-07
1.60925e-08
7.86035e-10
3.49918e-11
1.43362e-12
5.45037e-14
1.93642e-15
6.46998e-17
2.0444e-18
6.1397e-20
1.75946e-21
4.82461e-23
1.26774e-24
3.19338e-26
7.71168e-28
1.78445e-29
3.95583e-31
8.39671e-33
1.70631e-34
3.31878e-36
6.1816e-38
1.10295e-39
1.88812e-41
3.09787e-43
0.329895
0.062207
0.00820149
0.000834886
6.95038e-05
4.89925e-06
3.00414e-07
1.63383e-08
8.00139e-10
3.57105e-11
1.46652e-12
5.58606e-14
1.9874e-15
6.64689e-17
2.10258e-18
6.32618e-20
1.81913e-21
5.01536e-23
1.32741e-24
3.3721e-26
8.21713e-28
1.91924e-29
4.29451e-31
9.19899e-33
1.88503e-34
3.69298e-36
6.91826e-38
1.24008e-39
2.13088e-41
3.50894e-43
0.329873
0.0622125
0.00821211
0.000839251
0.000130831
2.04496e-06
2.01976e-08
1.38904e-10
7.60151e-13
5.64378e-15
1.17695e-16
3.72243e-18
1.17598e-19
3.53379e-21
1.01106e-22
2.76311e-24
7.22015e-26
1.80714e-27
4.33741e-29
1.00001e-30
2.21402e-32
4.71732e-34
9.68189e-36
1.90515e-37
7.42857e-38
4.88672e-39
4.51038e-41
1.29798e-42
3.04742e-44
6.23102e-46
0.329843
0.062225
0.00822273
0.00084234
0.000131796
2.07624e-06
2.06444e-08
1.41514e-10
7.09954e-13
2.72805e-15
8.3031e-18
2.05328e-20
4.21192e-23
7.30692e-26
1.09415e-28
1.43769e-31
1.29648e-34
-1.27839e-36
-4.31731e-38
-1.16701e-39
-2.93097e-41
-7.01485e-43
-1.5912e-44
-3.4356e-46
6.16441e-45
3.30507e-45
2.197e-44
1.05164e-45
3.27176e-47
8.04033e-49
0.329819
0.062236
0.00823039
0.000844328
0.000132381
2.09841e-06
2.10494e-08
1.45923e-10
7.42327e-13
2.89893e-15
8.97268e-18
2.25175e-20
4.66315e-23
8.1048e-26
1.20787e-28
1.59165e-31
1.9268e-34
2.19291e-37
2.30798e-40
2.17459e-43
1.80419e-46
1.30168e-49
5.40513e-53
5.53768e-54
8.57316e-52
2.5299e-51
1.52042e-47
9.67143e-49
3.61285e-50
9.99854e-52
0.329789
0.0622412
0.00823526
0.00084554
0.000132715
2.11133e-06
2.13176e-08
1.49376e-10
7.72305e-13
3.08078e-15
9.76133e-18
2.5008e-20
5.23903e-23
9.06904e-26
1.32034e-28
1.67557e-31
1.95936e-34
2.21065e-37
2.35314e-40
2.23645e-43
1.87993e-46
1.42604e-49
9.81258e-53
6.04251e-56
1.98895e-57
7.65357e-57
1.81199e-50
1.32848e-51
5.50018e-53
1.59329e-54
0.329752
0.0622385
0.00823602
0.000845582
0.000132661
2.1099e-06
2.13621e-08
1.51036e-10
7.95153e-13
3.25962e-15
1.06598e-17
2.8055e-20
5.93697e-23
9.99939e-26
1.31959e-28
1.37949e-31
2.78139e-35
2.14549e-40
1.92722e-43
2.57663e-46
1.40664e-50
2.96278e-50
1.42622e-49
1.02412e-52
3.85784e-56
-1.70461e-56
1.00274e-50
1.7647e-52
2.34093e-54
2.79025e-56
0.329701
0.0622225
0.00822992
0.000843649
0.000131948
2.08261e-06
2.096e-08
1.48413e-10
7.93663e-13
3.35426e-15
1.13528e-17
3.04744e-20
6.33369e-23
9.77425e-26
1.04789e-28
1.43918e-31
1.47754e-37
7.16342e-50
1.29321e-54
3.74393e-56
5.08894e-57
4.37413e-45
5.42653e-44
1.36304e-46
7.47875e-51
-7.87123e-52
1.38392e-45
8.03872e-48
4.15498e-50
2.16139e-52
0.329638
0.0621866
0.00821381
0.000838711
0.000130192
2.01183e-06
1.97556e-08
1.37401e-10
7.38401e-13
3.23911e-15
1.16246e-17
3.36704e-20
7.75897e-23
1.38507e-25
1.75829e-28
1.27172e-31
1.55394e-36
3.43473e-46
2.51185e-40
7.52868e-39
6.44445e-41
7.91362e-44
1.22701e-45
3.21246e-41
1.20863e-43
2.56555e-46
3.57369e-49
0.329567
0.0621292
0.0081848
0.000829862
0.000127027
1.88036e-06
1.74109e-08
1.14619e-10
6.16429e-13
3.00157e-15
1.28517e-17
4.27804e-20
1.03544e-22
1.72583e-23
1.51979e-25
-3.33049e-28
-1.66204e-31
7.91779e-42
1.68888e-35
1.10213e-33
9.75085e-36
1.45969e-38
9.1145e-42
3.37179e-38
2.21068e-40
1.02411e-42
3.36832e-45
0.329495
0.0620538
0.0081451
0.000817581
0.000122514
1.68868e-06
1.39588e-08
1.4973e-10
3.39281e-14
4.85312e-18
1.69834e-21
9.08372e-24
6.40608e-22
7.58755e-15
6.09516e-18
-2.43785e-20
1.10212e-24
-2.39708e-37
1.04175e-29
2.28392e-28
1.06722e-30
1.3792e-33
8.44276e-37
2.46195e-35
2.21133e-37
1.31474e-39
5.95921e-42
0.329437
0.0619797
0.008105
0.000805001
0.000117732
1.48381e-06
1.03213e-08
7.73334e-11
1.95629e-14
3.72254e-09
5.45745e-11
-9.4816e-11
1.14784e-14
1.099e-17
2.99369e-20
1.76068e-18
-2.66978e-24
5.80565e-21
5.35202e-23
1.09727e-25
1.10471e-28
6.20902e-32
1.9294e-32
1.73521e-34
1.09068e-36
5.44506e-39
0.3294
0.0619314
0.00807926
0.000796965
0.000114508
1.34642e-06
8.12328e-09
4.12526e-11
7.60532e-08
0.00019924
0.00648052
0.559164
0.00064435
3.74606e-06
2.00401e-08
4.89965e-10
2.49004e-12
5.7212e-15
8.98779e-18
9.66969e-21
7.05672e-24
3.35065e-27
2.98497e-29
1.97951e-31
1.17505e-33
6.40856e-36
0.329403
0.0619322
0.00807925
0.000796935
0.000114159
1.32286e-06
7.74622e-09
3.60847e-11
0.0190887
182.766
16972.4
843252
16.2813
0.146179
0.00159596
1.15824e-05
5.01879e-08
1.35902e-10
2.39407e-13
2.72249e-16
1.95161e-19
8.90716e-23
3.23375e-27
2.10891e-29
1.22649e-31
6.53279e-34
0.329435
0.0619786
0.00810451
0.000804875
0.000116781
1.41597e-06
9.07671e-09
5.13585e-11
5.45442e-06
0.000964097
0.000447191
0.0525288
0.000445758
-3.64308e-07
-2.43677e-09
6.24324e-10
1.07934e-12
6.31569e-16
3.52369e-18
8.88334e-21
1.0235e-23
6.0127e-27
5.14467e-30
5.15847e-32
3.61709e-34
2.09025e-36
0.329495
0.0620537
0.00814457
0.00081742
0.000121325
1.59982e-06
1.21754e-08
1.08463e-10
2.10488e-15
-1.57453e-27
1.76495e-31
4.51122e-24
2.69086e-12
1.23629e-08
9.29293e-12
-4.88083e-11
3.42867e-14
6.05179e-18
-4.19327e-19
8.88347e-19
-3.41351e-25
-4.71292e-26
1.76711e-23
1.60158e-25
2.88564e-28
1.97132e-31
1.12722e-32
1.23887e-34
9.0019e-37
5.15878e-39
0.329563
0.0621277
0.00818408
0.000829668
0.000125982
1.80299e-06
1.58756e-08
9.94236e-11
5.09002e-13
2.46942e-15
8.33207e-18
1.29738e-20
-5.35211e-21
5.55163e-16
1.97029e-18
4.30289e-21
1.91802e-24
1.63836e-38
7.8257e-33
5.72007e-29
2.40411e-30
6.49879e-33
4.78734e-36
2.70751e-35
2.70488e-37
1.86032e-39
9.7146e-42
0.329637
0.0621856
0.00821305
0.000838515
0.000129444
1.95846e-06
1.87318e-08
1.27156e-10
6.8217e-13
3.10976e-15
1.20815e-17
3.91216e-20
1.02271e-22
1.40286e-24
2.27378e-26
-9.66946e-29
-2.75139e-31
7.94571e-45
1.44376e-38
1.51135e-34
2.76486e-35
1.19946e-37
1.04336e-40
5.76755e-38
5.08789e-40
2.85491e-42
1.22625e-44
0.329711
0.0622217
0.00822907
0.000843468
0.000131465
2.05047e-06
2.03978e-08
1.43279e-10
7.67062e-13
3.28137e-15
1.12825e-17
3.06297e-20
6.41879e-23
1.00243e-25
1.08279e-28
1.35649e-31
1.22913e-37
7.22569e-50
4.04719e-44
2.60695e-40
2.08803e-40
1.50865e-42
1.47654e-44
8.54729e-41
6.66771e-43
3.07104e-45
1.04954e-47
0.329749
0.0622407
0.00823605
0.000845424
0.00013236
2.09242e-06
2.10968e-08
1.49135e-10
7.89762e-13
3.27667e-15
1.0862e-17
2.87841e-20
6.01397e-23
9.61081e-26
1.1193e-28
1.74144e-31
1.5673e-36
3.98246e-45
1.72233e-51
3.18477e-52
-3.73413e-59
3.32945e-53
1.71399e-48
3.83727e-46
1.01291e-47
1.53814e-47
7.63159e-44
6.8166e-46
3.5274e-48
1.46537e-50
0.329774
0.062238
0.00823493
0.00084542
0.000132523
2.10234e-06
2.12151e-08
1.49029e-10
7.75383e-13
3.12257e-15
1.00018e-17
2.5821e-20
5.40731e-23
9.20466e-26
1.28162e-28
1.49873e-31
1.60021e-34
1.78706e-37
2.05651e-40
2.05357e-43
1.65859e-46
1.05714e-49
5.0802e-53
1.62841e-53
1.19243e-53
5.87418e-53
5.68391e-48
1.48475e-49
2.40207e-51
3.15762e-53
0.329818
0.062233
0.00822942
0.000844147
0.000132278
2.09433e-06
2.10293e-08
1.46187e-10
7.47332e-13
2.9378e-15
9.15404e-18
2.30705e-20
4.77349e-23
8.21988e-26
1.20275e-28
1.54926e-31
1.84316e-34
2.07842e-37
2.15822e-40
1.97895e-43
1.58009e-46
1.10266e-49
6.77353e-53
3.70481e-56
3.10447e-59
-6.34617e-58
2.57472e-51
1.79484e-52
6.99869e-53
8.32746e-54
0.329844
0.0622248
0.00822235
0.000842213
0.000131741
2.07721e-06
2.0702e-08
1.42364e-10
7.17137e-13
2.76771e-15
8.45528e-18
2.09494e-20
4.29068e-23
7.40029e-26
1.09749e-28
1.43777e-31
1.71487e-34
1.90138e-37
1.92159e-40
1.05747e-43
-1.54323e-45
-3.60673e-47
-7.51667e-49
-1.51079e-50
-2.89952e-52
1.90388e-53
-1.01172e-47
8.07006e-49
3.10173e-49
2.42831e-50
0.329872
0.062212
0.00821176
0.000839124
0.000130878
2.04775e-06
2.02077e-08
1.3739e-10
6.82831e-13
2.59674e-15
7.82304e-18
1.92708e-20
4.27822e-23
1.63529e-25
2.28358e-27
4.65737e-29
8.64744e-31
1.36358e-32
1.45392e-34
-6.56312e-37
-1.03031e-37
-4.13535e-39
-1.25703e-40
-3.32749e-42
-7.91522e-44
-1.7726e-45
-1.64256e-42
1.90223e-44
2.28364e-45
9.14904e-47
0.329895
0.0622065
0.00820114
0.000834772
6.9481e-05
4.89618e-06
3.00073e-07
1.63082e-08
7.97849e-10
3.55594e-11
1.45761e-12
5.53991e-14
1.96573e-15
6.55344e-17
2.06542e-18
6.18892e-20
1.77175e-21
4.8617e-23
1.28037e-24
3.23519e-26
7.83916e-28
1.82033e-29
4.05171e-31
8.64698e-33
1.77086e-34
3.48094e-36
6.57139e-38
1.1917e-39
2.0786e-41
3.48187e-43
0.329917
0.0621946
0.0081913
0.000831803
6.89725e-05
4.84732e-06
2.96318e-07
1.60623e-08
7.83792e-10
3.48456e-11
1.42522e-12
5.40751e-14
1.91638e-15
6.38424e-17
2.01043e-18
6.01468e-20
1.71662e-21
4.68653e-23
1.22576e-24
3.07334e-26
7.38703e-28
1.70178e-29
3.75917e-31
7.96342e-33
1.61853e-34
3.15802e-36
5.91765e-38
1.06533e-39
1.8448e-41
3.06814e-43
0.329928
0.0621861
0.00818557
0.000830262
6.87173e-05
4.8176e-06
2.93679e-07
1.58703e-08
7.71785e-10
3.41844e-11
1.39282e-12
5.26191e-14
1.85692e-15
6.15714e-17
1.92907e-18
5.73604e-20
1.62492e-21
4.3979e-23
1.13925e-24
2.82716e-26
6.72357e-28
1.53296e-29
3.35121e-31
7.02743e-33
1.41437e-34
2.73263e-36
5.07161e-38
9.04288e-40
1.55126e-41
2.5576e-43
0.329933
0.062182
0.00818296
0.000829566
6.86009e-05
4.80399e-06
2.92477e-07
1.57845e-08
7.66555e-10
3.39049e-11
1.3793e-12
5.20394e-14
1.83333e-15
6.06859e-17
1.89701e-18
5.62596e-20
1.58863e-21
4.28284e-23
1.10448e-24
2.72741e-26
6.45463e-28
1.4642e-29
3.18554e-31
6.64879e-33
1.33177e-34
2.56209e-36
4.73426e-38
8.407e-40
1.43666e-41
2.36028e-43
0.329654
0.0617738
0.00803213
0.000799824
6.46506e-05
4.40842e-06
2.60633e-07
1.36354e-08
6.41333e-10
2.74639e-11
1.08195e-12
3.95527e-14
1.35165e-15
4.34532e-17
1.32137e-18
3.81824e-20
1.05236e-21
2.77423e-23
7.00839e-25
1.69848e-26
3.95177e-28
8.82821e-30
1.89397e-31
3.9025e-33
7.72431e-35
1.4691e-36
2.68537e-38
4.72051e-40
7.99102e-42
1.30232e-43
0.329655
0.0617751
0.00803274
0.000800008
6.46845e-05
4.41276e-06
2.61053e-07
1.3668e-08
6.43433e-10
2.75815e-11
1.08779e-12
3.98149e-14
1.36251e-15
4.38743e-17
1.33688e-18
3.87302e-20
1.07094e-21
2.83439e-23
7.19327e-25
1.75217e-26
4.09829e-28
9.20554e-30
1.98588e-31
4.1137e-33
8.18371e-35
1.56396e-36
2.8717e-38
5.06876e-40
8.61271e-42
1.40847e-43
0.329657
0.0617777
0.00803405
0.000800386
6.47537e-05
4.42171e-06
2.6192e-07
1.37351e-08
6.47808e-10
2.78292e-11
1.10025e-12
4.0381e-14
1.38615e-15
4.47967e-17
1.37105e-18
3.99421e-20
1.11218e-21
2.96853e-23
7.60708e-25
1.87263e-26
4.42832e-28
1.00584e-29
2.19432e-31
4.59545e-33
9.23911e-35
1.78323e-36
3.30558e-38
5.88687e-40
1.00867e-41
1.66249e-43
0.32966
0.061781
0.0080357
0.00080088
6.48543e-05
4.42799e-06
2.62374e-07
1.37716e-08
6.50471e-10
2.79948e-11
1.10913e-12
4.07958e-14
1.40356e-15
4.54745e-17
1.39629e-18
4.08646e-20
1.14539e-21
3.08431e-23
7.98919e-25
1.99036e-26
4.76632e-28
1.09642e-29
2.42194e-31
5.13381e-33
1.04371e-34
2.03453e-36
3.80427e-38
6.82656e-40
1.17721e-41
1.95155e-43
0.329667
0.0617847
0.0080369
0.000801494
0.000121894
1.81851e-06
1.69284e-08
1.09329e-10
5.68644e-13
4.24988e-15
9.03357e-17
2.79553e-18
8.58232e-20
2.50871e-21
6.99493e-23
1.86732e-24
4.77828e-26
1.17415e-27
2.77495e-29
6.31408e-31
1.38498e-32
2.92656e-34
5.96751e-36
8.83033e-37
1.01952e-37
3.57119e-39
2.82872e-41
7.92229e-43
1.83793e-44
3.74297e-46
0.329669
0.0617863
0.00803785
0.000801885
0.000122107
1.82933e-06
1.71145e-08
1.10128e-10
5.20721e-13
1.89775e-15
5.5233e-18
1.31902e-20
2.64239e-23
4.53031e-26
6.78293e-29
8.99809e-32
8.24461e-35
-7.81864e-37
-2.5754e-38
-6.77968e-40
-1.66843e-41
-3.8979e-43
-8.72629e-45
3.65573e-44
5.12808e-44
4.75219e-45
1.63365e-44
7.52183e-46
2.30023e-47
5.60756e-49
0.329671
0.061785
0.00803745
0.000801954
0.000122223
1.83769e-06
1.7307e-08
1.12514e-10
5.39672e-13
2.00298e-15
5.95149e-18
1.45134e-20
2.96217e-23
5.15395e-26
7.80958e-29
1.05944e-31
1.32983e-34
1.58219e-37
1.77061e-40
1.81817e-43
1.69576e-46
1.43056e-49
9.24314e-53
4.54082e-51
3.94203e-50
7.93793e-51
1.31997e-47
8.22372e-49
3.0774e-50
8.62187e-52
0.32967
0.0617784
0.0080342
0.000801336
0.000122154
1.84098e-06
1.74458e-08
1.14741e-10
5.60719e-13
2.13506e-15
6.53988e-18
1.64527e-20
3.4492e-23
6.1074e-26
9.30526e-29
1.2629e-31
1.61981e-34
2.07384e-37
2.61123e-40
3.05546e-43
3.23982e-46
3.10764e-49
2.68985e-52
2.12917e-55
1.13856e-55
3.71946e-56
1.66813e-50
1.24875e-51
5.3528e-53
1.63012e-54
0.329665
0.0617628
0.0080263
0.000799526
0.000121759
1.83463e-06
1.74613e-08
1.16291e-10
5.82189e-13
2.2999e-15
7.37421e-18
1.946e-20
4.25342e-23
7.71534e-26
1.16499e-28
1.49481e-31
4.41548e-35
4.07755e-40
3.884e-43
4.77248e-46
3.44211e-50
1.02518e-53
1.1412e-53
5.45238e-57
1.8673e-60
-1.06933e-59
3.25992e-53
2.21695e-54
9.80962e-56
3.0479e-57
0.329656
0.0617333
0.00801128
0.000795827
0.000120821
1.81049e-06
1.72189e-08
1.15896e-10
5.9775e-13
2.48793e-15
8.54016e-18
2.42268e-20
5.65181e-23
1.06869e-25
1.5688e-28
3.16068e-31
6.87456e-37
5.86196e-49
5.0018e-55
1.62756e-55
2.51202e-60
3.14206e-48
4.80318e-48
2.5397e-51
6.13074e-56
-1.21493e-54
1.04321e-48
8.98554e-51
6.633e-53
4.70854e-55
0.329642
0.0616855
0.00798612
0.000789404
0.000119052
1.75698e-06
1.64943e-08
1.11071e-10
5.91036e-13
2.6426e-15
1.00264e-17
3.20537e-20
8.52483e-23
1.83196e-25
2.8928e-28
2.49978e-31
2.98742e-36
2.95789e-49
4.80213e-43
1.45762e-42
2.52724e-45
8.89099e-49
7.16269e-49
6.33139e-45
2.04815e-47
6.90369e-50
1.98802e-52
0.329622
0.0616176
0.00794957
0.000779732
0.000116219
1.66163e-06
1.49935e-08
9.7559e-11
5.19838e-13
2.55114e-15
1.12013e-17
3.62579e-20
7.74841e-23
1.25007e-25
2.51775e-28
-2.02297e-31
-2.55099e-35
3.81283e-43
2.93617e-37
6.91314e-37
1.63064e-39
8.82552e-43
2.9338e-46
5.85703e-43
3.3124e-45
1.13912e-47
4.83419e-50
0.329608
0.0615357
0.00790495
0.000767487
0.000112414
1.52156e-06
1.2509e-08
1.33997e-10
2.92786e-14
3.75774e-18
1.18367e-21
2.84402e-24
6.26189e-25
6.38618e-18
3.88736e-21
-2.63923e-24
4.20032e-28
-4.29374e-40
1.08584e-29
2.60275e-31
4.11408e-34
2.46976e-37
8.20926e-41
7.14395e-40
6.91824e-42
4.36701e-44
2.30494e-46
0.32959
0.0614591
0.00786248
0.000755573
0.000108506
1.36801e-06
9.59615e-09
6.83e-11
9.07503e-18
1.27752e-11
5.89889e-14
-1.06254e-13
-2.6462e-18
1.66215e-20
3.27622e-20
2.03639e-21
-1.48839e-26
1.5875e-23
3.64504e-26
3.78614e-29
2.16985e-32
7.60781e-36
8.13323e-37
7.54552e-39
5.22954e-41
3.48673e-43
0.32958
0.0614122
0.00783634
0.000748212
0.00010593
1.26435e-06
7.81534e-09
3.85908e-11
3.94737e-11
2.03769e-06
1.08114e-05
0.000693415
3.68628e-07
2.31215e-09
1.3924e-11
3.96635e-13
1.58054e-15
2.59626e-18
2.72086e-21
1.94271e-24
9.35646e-28
3.05983e-31
2.41913e-33
1.82831e-35
1.2743e-37
8.33405e-40
0.329581
0.0614122
0.00783609
0.00074817
0.000105653
1.24561e-06
7.49961e-09
3.44545e-11
9.90945e-06
0.352323
42.9169
1628.97
0.0209986
0.000156316
1.54279e-06
9.39454e-09
3.13119e-11
6.01094e-14
7.06449e-17
5.21042e-20
2.60444e-23
9.06351e-27
3.11434e-31
2.32311e-33
1.59301e-35
1.02186e-37
0.32959
0.0614582
0.00786186
0.000755437
0.000107752
1.31459e-06
8.54454e-09
4.62809e-11
3.04677e-09
6.92285e-06
6.93712e-07
5.97647e-05
-2.71643e-07
-1.15719e-10
7.65983e-13
4.21555e-13
1.08673e-15
8.14071e-19
1.84469e-21
2.48139e-24
1.85813e-27
8.32521e-31
4.32051e-34
5.34189e-36
4.76654e-38
3.56987e-40
0.329604
0.0615336
0.00790408
0.000767273
0.000111465
1.45283e-06
1.10502e-08
9.44923e-11
1.5158e-15
2.46113e-26
3.65325e-33
8.89722e-29
1.297e-15
6.11077e-12
4.86996e-15
-4.67602e-14
-2.54583e-17
8.40806e-21
1.18092e-22
1.08999e-22
-1.69715e-28
6.11992e-25
2.13912e-26
6.53387e-29
6.9544e-32
3.6081e-35
8.21105e-37
1.21851e-38
1.21519e-40
9.65134e-43
0.329625
0.0616156
0.00794862
0.000779489
0.000115371
1.60336e-06
1.38792e-08
8.56359e-11
4.18588e-13
1.96398e-15
5.64385e-18
5.41301e-21
-6.50013e-24
4.03842e-19
1.15956e-21
4.3027e-24
1.78619e-28
-1.39783e-38
8.66381e-34
9.70553e-32
9.70848e-34
1.44315e-36
8.08475e-40
1.63004e-39
2.37506e-41
2.33093e-43
1.70192e-45
0.329643
0.0616842
0.00798513
0.000789163
0.00011842
1.71638e-06
1.58077e-08
1.0503e-10
5.62862e-13
2.62457e-15
1.08464e-17
3.86554e-20
1.13429e-22
2.61728e-25
4.67708e-28
3.8192e-31
-4.66953e-35
3.23001e-46
2.2737e-41
1.2556e-37
6.23681e-39
1.46987e-41
8.8212e-45
2.31518e-42
2.94498e-44
2.52396e-46
1.35361e-48
0.329666
0.0617353
0.0080105
0.00079561
0.000120386
1.78473e-06
1.68376e-08
1.13243e-10
5.91748e-13
2.54045e-15
9.09576e-18
2.69702e-20
6.56106e-23
1.28183e-25
1.86945e-28
3.17893e-31
3.10258e-37
5.12405e-53
7.73834e-48
5.73179e-44
1.65967e-44
6.22839e-47
1.34075e-48
3.02266e-45
1.74336e-47
8.65275e-50
3.63511e-52
0.329654
0.0617618
0.00802574
0.000799301
0.000121477
1.81861e-06
1.72589e-08
1.15255e-10
5.8375e-13
2.35475e-15
7.762e-18
2.10814e-20
4.71809e-23
8.64248e-26
1.27316e-28
2.8136e-31
4.73243e-36
1.86806e-44
3.65637e-51
2.78077e-52
-1.03907e-60
3.31549e-54
5.02778e-52
1.55126e-50
2.4689e-52
8.08712e-52
7.57376e-47
9.1996e-49
7.33075e-51
5.23811e-53
0.329671
0.0617723
0.00803325
0.00080116
0.000121949
1.83114e-06
1.73366e-08
1.14382e-10
5.6371e-13
2.17596e-15
6.77884e-18
1.73448e-20
3.68193e-23
6.53947e-26
9.83879e-29
1.29745e-31
1.60844e-34
2.09842e-37
2.84987e-40
3.25841e-43
2.81208e-46
1.79839e-49
8.63719e-53
3.17057e-56
1.10325e-58
6.44993e-57
5.02992e-51
1.94605e-52
5.31572e-54
1.38804e-55
0.329672
0.0617837
0.00803634
0.000801697
0.000122073
1.83124e-06
1.72436e-08
1.12381e-10
5.42085e-13
2.02867e-15
6.08565e-18
1.49786e-20
3.07658e-23
5.35871e-26
8.07987e-29
1.08818e-31
1.37013e-34
1.67456e-37
1.95753e-40
2.11155e-43
2.06692e-46
1.82955e-49
1.4623e-52
1.05592e-55
6.85578e-59
-6.50421e-57
1.77148e-49
2.36086e-50
1.47792e-51
6.37031e-53
0.32967
0.0617853
0.00803718
0.000801697
0.000122002
1.82485e-06
1.70785e-08
1.10089e-10
5.22301e-13
1.9127e-15
5.59751e-18
1.34294e-20
2.69844e-23
4.62804e-26
6.92133e-29
9.24874e-32
1.1339e-34
1.29905e-37
1.36969e-40
8.99861e-44
-8.92553e-46
-2.13449e-47
-4.42458e-49
-8.84227e-51
-1.70394e-52
-4.32437e-53
5.37064e-46
4.84646e-47
2.21147e-48
7.56456e-50
0.329667
0.0617837
0.0080362
0.000801295
0.000121816
1.81546e-06
1.68764e-08
1.07773e-10
5.04973e-13
1.82126e-15
5.24138e-18
1.24604e-20
2.72675e-23
1.09587e-25
1.58422e-27
3.16759e-29
6.0115e-31
1.00354e-32
1.32173e-34
6.96646e-37
-3.34076e-38
-1.75926e-39
-5.81355e-41
-1.56681e-42
-3.87819e-44
-8.74351e-46
3.10372e-42
1.56581e-43
4.80596e-45
1.21512e-46
0.329661
0.0617797
0.00803499
0.00080069
6.4821e-05
4.42386e-06
2.61964e-07
1.37385e-08
6.48149e-10
2.7853e-11
1.10136e-12
4.0416e-14
1.38678e-15
4.47923e-17
1.37073e-18
3.99661e-20
1.11589e-21
2.99289e-23
7.72193e-25
1.91587e-26
4.56986e-28
1.04723e-29
2.30662e-31