/*--------------------------------*- C++ -*----------------------------------*\
  =========                 |
  \\      /  F ield         | OpenFOAM: The Open Source CFD Toolbox
   \\    /   O peration     | Website:  https://openfoam.org
    \\  /    A nd           | Version:  10
     \\/     M anipulation  |
\*---------------------------------------------------------------------------*/
FoamFile
{
    format      ascii;
    class       volScalarField;
    location    "3";
    object      T;
}
// * * * * * * * * * * * * * * * * * * * * * * * * * * * * * * * * * * * * * //

dimensions      [0 0 0 1 0 0 0];

internalField   nonuniform List<scalar> 
96305
(
0.451271
0.120795
0.0224987
0.00318073
0.000360531
3.40298e-05
2.74868e-06
1.93915e-07
1.21421e-08
6.83702e-10
3.49991e-11
1.64384e-12
7.14075e-14
2.88933e-15
1.09591e-16
3.9183e-18
1.32675e-19
4.26986e-21
1.30929e-22
3.83077e-24
1.07037e-25
2.85697e-27
7.28591e-29
1.77539e-30
4.13439e-32
9.21333e-34
1.9645e-35
4.00773e-37
7.83562e-39
1.4649e-40
0.451283
0.120787
0.022493
0.00317913
0.000360275
3.40038e-05
2.74661e-06
1.93751e-07
1.21293e-08
6.82756e-10
3.49342e-11
1.6397e-12
7.1168e-14
2.8769e-15
1.09023e-16
3.89573e-18
1.31904e-19
4.24745e-21
1.30386e-22
3.82054e-24
1.06933e-25
2.85932e-27
7.3054e-29
1.7836e-30
4.16234e-32
9.2943e-34
1.98574e-35
4.05663e-37
7.93725e-39
1.4837e-40
0.451291
0.120776
0.0224855
0.00317725
0.000360017
3.39855e-05
2.74576e-06
1.93706e-07
1.21269e-08
6.82638e-10
3.49216e-11
1.63821e-12
7.1035e-14
2.86797e-15
1.08558e-16
3.87701e-18
1.31347e-19
4.23749e-21
1.30466e-22
3.83612e-24
1.07743e-25
2.88973e-27
7.40073e-29
1.80963e-30
4.22335e-32
9.41414e-34
2.00659e-35
4.08647e-37
7.96251e-39
1.47955e-40
0.451306
0.120722
0.0224489
0.00316657
0.000358549
3.37854e-05
2.72448e-06
1.91797e-07
1.19838e-08
6.73427e-10
3.43953e-11
1.61069e-12
6.97026e-14
2.80888e-15
1.06235e-16
3.80078e-18
1.29536e-19
4.22546e-21
1.32162e-22
3.96249e-24
1.13781e-25
3.12661e-27
8.22076e-29
2.06813e-30
4.97405e-32
1.144e-33
2.509e-35
5.22123e-37
1.03494e-38
1.95099e-40
0.451423
0.120593
0.0223681
0.00311374
0.000548487
8.61365e-06
8.20189e-08
5.62944e-10
4.33531e-12
9.59639e-14
3.89339e-15
1.58602e-16
5.97358e-18
2.07176e-19
6.60988e-21
1.9261e-22
5.00843e-24
1.09675e-25
1.63385e-27
-9.29886e-30
-2.11259e-30
-1.15034e-31
7.91506e-32
6.20239e-33
2.30697e-34
6.65853e-36
5.34993e-38
1.66006e-39
4.29181e-41
9.72309e-43
0.451438
0.120529
0.0223213
0.00310132
0.000546012
8.71019e-06
8.5211e-08
5.84447e-10
3.05417e-12
1.26684e-14
4.27821e-17
1.19485e-19
2.79691e-22
5.57902e-25
9.69661e-28
2.04575e-24
-4.59279e-24
-3.82955e-25
-1.1658e-26
-7.16141e-29
-1.93477e-31
-2.9252e-34
-2.20412e-37
4.89659e-38
3.91717e-39
1.65121e-40
8.00842e-41
3.88246e-42
1.27008e-43
3.30428e-45
0.451458
0.120488
0.0222888
0.00309026
0.000542587
8.60991e-06
8.36668e-08
5.68807e-10
2.95173e-12
1.21559e-14
4.05493e-17
1.10602e-19
2.48111e-22
4.6241e-25
-2.3511e-26
1.71208e-20
-4.83076e-20
-5.59909e-21
-2.46951e-22
-2.09656e-24
-9.58287e-27
-2.86442e-29
-4.65923e-32
-3.18247e-35
-9.75473e-39
-2.97822e-42
1.3122e-39
7.41334e-41
2.50727e-42
6.74079e-44
0.451478
0.120429
0.0222402
0.0030729
0.000536743
8.39631e-06
8.00075e-08
5.3281e-10
2.71327e-12
1.09744e-14
3.57783e-17
9.40745e-20
1.9832e-22
3.32333e-25
-5.32937e-23
6.28291e-17
-2.43985e-16
-3.6421e-17
-1.87166e-18
-1.81728e-20
-1.01978e-22
-3.92002e-25
-1.02542e-27
-1.70671e-30
-1.98405e-33
-1.70347e-36
-4.69322e-36
-4.58648e-38
-3.66179e-41
1.27997e-41
0.451503
0.120337
0.0221637
0.00304454
0.000526747
8.01012e-06
7.3359e-08
4.68081e-10
2.29362e-12
8.99438e-15
2.83648e-17
6.95144e-20
1.23193e-22
1.38617e-25
-5.08672e-20
1.02071e-13
-7.09196e-14
-1.04271e-15
-2.88669e-17
-4.75442e-20
-1.00516e-23
-6.77024e-26
-8.14396e-29
-4.14813e-31
-1.69201e-33
-3.48037e-36
-6.30966e-38
-6.13712e-40
-2.5569e-42
7.4998e-44
0.451526
0.120195
0.0220453
0.00299948
0.000510332
7.3591e-06
6.23042e-08
3.63568e-10
1.64161e-12
5.78827e-15
1.42882e-17
2.15681e-20
1.81632e-23
-3.51694e-25
-3.29212e-18
5.02347e-12
-1.02402e-10
-1.21659e-17
-1.2051e-22
-4.89506e-27
-4.65676e-32
4.38769e-35
-9.22304e-38
-4.06786e-37
-2.89811e-38
-1.11084e-40
-9.1774e-41
-7.53966e-43
5.12547e-45
3.33229e-46
0.451553
0.119989
0.0218721
0.00293239
0.000485183
6.35421e-06
4.6026e-08
2.20465e-10
7.66816e-13
1.9795e-15
4.65158e-18
1.17811e-20
2.93296e-23
8.23234e-23
1.64837e-15
3.85095e-09
-3.75643e-09
7.69214e-53
4.9408e-44
-8.42392e-47
-3.52704e-46
-4.36674e-46
-1.02939e-47
6.13464e-45
3.58394e-46
1.34283e-47
2.23505e-48
0.451589
0.119718
0.0216415
0.00284152
0.000450063
4.98437e-06
2.64228e-08
7.67814e-11
1.84858e-13
2.34966e-15
3.40935e-17
2.5747e-19
1.16556e-21
-1.99894e-23
2.19411e-17
1.57728e-11
2.34968e-10
-1.38933e-62
8.16531e-50
1.01211e-47
1.71759e-49
3.89639e-52
5.01554e-49
2.39653e-44
1.72312e-45
6.80774e-47
2.45848e-48
0.451627
0.119412
0.0213759
0.00273551
0.000407724
3.44085e-06
9.28519e-09
6.24586e-12
2.01586e-15
3.48096e-18
1.28308e-21
2.71419e-21
6.68587e-24
5.05443e-27
-3.7866e-19
4.33186e-14
1.03832e-12
-7.24047e-58
5.50942e-45
4.39727e-43
4.53342e-45
8.19362e-48
5.91563e-51
4.64403e-46
1.09912e-47
2.9884e-49
1.06136e-50
0.45167
0.119136
0.0211332
0.00263799
0.000367264
2.15054e-06
1.24624e-09
1.37138e-13
-9.43358e-36
-3.80451e-24
-6.82994e-21
5.06674e-17
2.794e-16
1.06567e-28
3.06752e-35
1.8144e-36
-4.69186e-42
1.1513e-37
4.27867e-39
2.52509e-41
5.18887e-44
4.91164e-47
7.37467e-44
1.10212e-45
1.09045e-47
9.6626e-50
0.451688
0.118967
0.0209863
0.00257907
0.000341116
1.45384e-06
1.10405e-11
1.89479e-13
-1.64224e-32
-1.94709e-24
-1.84721e-21
9.67033e-20
9.03071e-19
5.52853e-21
1.61607e-23
2.75332e-26
2.98684e-29
2.41694e-32
1.47813e-35
6.70928e-39
4.23957e-42
1.0051e-44
1.90665e-42
4.30219e-44
5.71353e-46
6.5717e-48
0.451688
0.118968
0.0209863
0.00257897
0.000337721
1.3272e-06
9.62064e-12
1.53136e-13
-6.19041e-34
-1.15148e-28
-2.26879e-26
1.47596e-25
1.03503e-24
8.85071e-27
4.1522e-29
1.16472e-31
2.12133e-34
2.80558e-37
5.53173e-40
9.86048e-43
9.13652e-46
7.34813e-49
5.12643e-45
1.26181e-46
1.72861e-48
2.07186e-50
0.451668
0.119133
0.0211317
0.00263749
0.000358275
1.74402e-06
9.09986e-11
2.5819e-13
-5.79116e-39
-7.5831e-33
5.56692e-35
-2.25972e-34
-7.63594e-32
-1.60859e-32
-4.07603e-35
1.23203e-36
2.23894e-40
5.54566e-44
6.5271e-44
1.62253e-45
5.40406e-48
6.37624e-51
5.35609e-47
1.13541e-48
1.38191e-50
1.47588e-52
0.451628
0.11941
0.0213739
0.00273473
0.000396288
2.78248e-06
4.14551e-09
-3.2419e-14
4.90527e-18
1.31144e-24
-6.36825e-30
2.17467e-30
4.60816e-37
7.82372e-31
3.60432e-31
-4.28839e-36
4.01774e-43
5.33006e-50
-1.74308e-48
4.17629e-47
-4.40079e-54
-5.46231e-50
6.12447e-47
1.25897e-48
3.29479e-51
2.87353e-54
3.65569e-49
7.00689e-51
8.26977e-53
9.00235e-55
0.451587
0.119715
0.0216384
0.00284044
0.00043945
4.27136e-06
1.72031e-08
3.02814e-11
1.92384e-13
5.14057e-15
4.74597e-17
1.91894e-19
4.10967e-22
6.05642e-25
6.4683e-28
-2.75219e-33
3.13115e-39
2.23666e-68
2.15203e-56
4.47379e-52
6.8983e-53
3.07464e-55
1.19516e-56
1.70174e-51
3.06722e-53
3.4302e-55
3.37579e-57
0.451554
0.119984
0.0218688
0.0029311
0.000476977
5.75707e-06
3.64636e-08
1.43381e-10
3.98443e-13
1.2165e-15
6.45646e-18
6.07004e-20
3.38234e-22
9.37087e-25
1.13727e-27
-6.43778e-32
9.40383e-38
1.20062e-74
9.21891e-62
1.09445e-57
1.1576e-57
1.06281e-59
4.56855e-58
5.69957e-54
9.77348e-56
9.60085e-58
7.02365e-60
0.451522
0.120186
0.0220398
0.00299791
0.000504446
6.92356e-06
5.46457e-08
2.93299e-10
1.19761e-12
3.53336e-15
6.94245e-18
9.69249e-21
1.08382e-23
1.02125e-26
7.71307e-30
-1.15231e-32
1.47598e-38
-1.19454e-72
-3.0157e-59
1.33434e-62
8.28939e-63
4.12475e-64
2.56227e-60
1.27914e-56
2.11277e-58
1.93653e-60
4.73847e-62
0.451537
0.120343
0.0221622
0.00304336
0.000522718
7.71498e-06
6.80168e-08
4.16062e-10
1.96118e-12
7.41038e-15
2.16623e-17
4.43856e-20
5.5586e-23
3.6016e-26
1.26284e-29
-1.98326e-32
3.35441e-37
9.98632e-45
4.97252e-48
-1.10247e-52
-1.03992e-53
-7.1476e-54
8.69808e-57
1.45262e-60
-9.88448e-65
-1.89584e-60
2.43871e-57
2.26529e-58
8.90718e-58
2.91622e-58
0.451449
0.120426
0.022237
0.00307139
0.000534005
8.20143e-06
7.64769e-08
4.97527e-10
2.47709e-12
9.80359e-15
3.12141e-17
7.93529e-20
1.57008e-22
2.29602e-25
2.25939e-28
1.39858e-31
1.15288e-34
5.98849e-36
4.00836e-38
1.07712e-40
1.82103e-43
2.18113e-46
1.82373e-49
1.0079e-52
3.46231e-56
-9.74369e-58
3.01203e-52
2.54737e-53
1.12625e-52
3.83149e-53
0.451459
0.120474
0.0222834
0.00308875
0.000540606
8.47665e-06
8.12843e-08
5.44873e-10
2.78654e-12
1.12971e-14
3.6943e-17
9.78424e-20
2.10059e-22
3.67203e-25
5.33706e-28
6.70297e-31
7.39724e-34
7.77874e-37
9.22735e-40
1.22595e-42
1.69927e-45
2.18336e-48
2.501e-51
1.2655e-54
1.35205e-53
-1.18139e-52
3.67711e-47
2.72843e-48
1.70997e-48
1.48495e-49
0.451439
0.120526
0.0223176
0.0030997
0.000544686
8.63444e-06
8.39338e-08
5.70511e-10
2.9555e-12
1.21357e-14
4.03943e-17
1.10405e-19
2.50264e-22
4.76652e-25
7.8201e-28
1.15651e-30
1.63951e-33
2.22361e-36
7.426e-40
-6.59366e-41
-1.99121e-42
-5.53797e-44
-2.76775e-45
1.18754e-45
1.06743e-44
2.59318e-45
4.39662e-42
2.63931e-43
1.0598e-44
3.55591e-46
0.451424
0.120589
0.0223644
0.00311228
0.000546387
8.63087e-06
8.36722e-08
5.6724e-10
2.92446e-12
1.1957e-14
4.00956e-17
1.21383e-19
6.22746e-22
1.07221e-23
2.40637e-25
3.94178e-27
-7.73802e-30
-4.47686e-30
-2.69625e-31
-1.18066e-32
-4.46174e-34
-1.53474e-35
-4.91563e-37
4.77777e-38
4.32661e-38
3.14185e-39
1.17516e-38
4.10608e-40
1.18062e-41
3.02963e-43
0.451308
0.120717
0.0224453
0.00316515
0.000358196
3.37247e-05
2.71627e-06
1.90889e-07
1.18993e-08
6.66626e-10
3.39145e-11
1.58049e-12
6.79819e-14
2.72017e-15
1.02031e-16
3.61639e-18
1.21957e-19
3.9324e-21
1.21426e-22
3.58775e-24
1.013e-25
2.73148e-27
7.03385e-29
1.73136e-30
4.08021e-32
9.22022e-34
1.99537e-35
4.12594e-37
8.16938e-39
1.54679e-40
0.451293
0.120772
0.0224817
0.00317577
0.000359653
3.39214e-05
2.73701e-06
1.92732e-07
1.20363e-08
6.75348e-10
3.44073e-11
1.60596e-12
6.92156e-14
2.77406e-15
1.04105e-16
3.68136e-18
1.2334e-19
3.92971e-21
1.19309e-22
3.45408e-24
9.53487e-26
2.50994e-27
6.30352e-29
1.51201e-30
3.46664e-32
7.60659e-34
1.5988e-35
3.22222e-37
6.2384e-39
1.15938e-40
0.451284
0.120784
0.0224896
0.00317772
0.000359921
3.39408e-05
2.73801e-06
1.92793e-07
1.20401e-08
6.75604e-10
3.4434e-11
1.60819e-12
6.9389e-14
2.78539e-15
1.04706e-16
3.70646e-18
1.24178e-19
3.95178e-21
1.19736e-22
3.45885e-24
9.53248e-26
2.5077e-27
6.30184e-29
1.51429e-30
3.48328e-32
7.6762e-34
1.62251e-35
3.29064e-37
6.41467e-39
1.20278e-40
0.451272
0.120791
0.0224951
0.00317928
0.000360172
3.39662e-05
2.74006e-06
1.92959e-07
1.20536e-08
6.76626e-10
3.4503e-11
1.61299e-12
6.96675e-14
2.80022e-15
1.05386e-16
3.73497e-18
1.25217e-19
3.98589e-21
1.20768e-22
3.48834e-24
9.61518e-26
2.53095e-27
6.36709e-29
1.53228e-30
3.5304e-32
7.7977e-34
1.65187e-35
3.35893e-37
6.57189e-39
1.23741e-40
0.451633
0.123026
0.0237812
0.00356417
0.000437021
4.54421e-05
4.11084e-06
3.29743e-07
2.38028e-08
1.56481e-09
9.46046e-11
5.30301e-12
2.77534e-13
1.36424e-14
6.33157e-16
2.78673e-17
1.1673e-18
4.66596e-20
1.78293e-21
6.51908e-23
2.28208e-24
7.64872e-26
2.45449e-27
7.54112e-29
2.21836e-30
6.25043e-32
1.68704e-33
4.36459e-35
1.08405e-36
2.58197e-38
0.451624
0.123031
0.0237879
0.00356695
0.000437718
4.55647e-05
4.12709e-06
3.31483e-07
2.39611e-08
1.57746e-09
9.55091e-11
5.36207e-12
2.81095e-13
1.38438e-14
6.43961e-16
2.84215e-17
1.19463e-18
4.79499e-20
1.84094e-21
6.76607e-23
2.38145e-24
8.02569e-26
2.58957e-27
7.99823e-29
2.36448e-30
6.6923e-32
1.8141e-33
4.71117e-35
1.17412e-36
2.80498e-38
0.451601
0.123044
0.0238033
0.00357322
0.000439283
4.58375e-05
4.16317e-06
3.35397e-07
2.43257e-08
1.60741e-09
9.77079e-11
5.50837e-12
2.90028e-13
1.43519e-14
6.71196e-16
2.98129e-17
1.26272e-18
5.11395e-20
1.98334e-21
7.36884e-23
2.623e-24
8.94085e-26
2.91786e-27
9.1121e-29
2.72257e-30
7.78115e-32
2.12831e-33
5.5729e-35
1.39919e-36
3.36469e-38
0.451558
0.123056
0.0238274
0.00358493
0.000442401
4.62573e-05
4.20831e-06
3.39601e-07
2.46749e-08
1.63341e-09
9.94539e-11
5.61382e-12
2.95804e-13
1.46429e-14
6.85113e-16
3.0469e-17
1.29422e-18
5.26762e-20
2.05706e-21
7.70619e-23
2.7678e-24
9.52347e-26
3.13767e-27
9.89079e-29
2.98084e-30
8.58329e-32
2.36187e-33
6.21453e-35
1.56654e-36
3.78172e-38
0.451515
0.123052
0.0238519
0.00360156
0.000806393
2.66263e-05
5.64373e-07
8.35468e-09
9.37799e-11
9.91068e-13
1.83982e-14
7.10186e-16
3.26438e-17
1.46355e-18
6.262e-20
2.56302e-21
9.87361e-23
3.56495e-24
1.2964e-25
4.63844e-27
1.56909e-28
5.05741e-30
1.56318e-31
4.63091e-33
1.75691e-33
1.67427e-34
2.32877e-36
9.71968e-38
3.32699e-39
9.93619e-41
0.451458
0.123065
0.023878
0.00361368
0.000811906
2.70084e-05
5.76394e-07
8.5472e-09
9.30861e-11
7.77485e-13
5.14381e-15
2.76319e-17
1.22993e-19
4.62332e-22
1.47289e-23
1.13401e-20
-3.55262e-20
-4.12863e-21
-1.14386e-22
-1.19459e-24
-7.13958e-27
-2.89871e-29
-8.57305e-32
-1.92308e-34
-3.44238e-37
-2.91454e-40
1.16592e-38
6.15454e-40
2.17864e-41
6.40032e-43
0.451413
0.123078
0.0238974
0.00362154
0.000815211
2.7277e-05
5.87079e-07
8.80132e-09
9.71651e-11
8.24514e-13
5.54581e-15
3.02272e-17
1.35819e-19
5.11509e-22
5.75041e-20
1.03789e-17
-3.19565e-16
-3.76473e-17
-8.60429e-19
-7.03169e-21
-3.51142e-23
-1.25831e-25
-3.31757e-28
-7.09705e-31
-1.28411e-33
-1.96953e-36
2.0506e-34
8.79187e-36
2.59588e-37
6.4641e-39
0.451359
0.123079
0.0239087
0.00362612
0.000817017
2.74296e-05
5.94052e-07
8.99839e-09
1.00913e-10
8.74245e-13
6.0166e-15
3.34659e-17
1.52097e-19
5.75568e-22
9.95004e-17
-9.33824e-14
-1.29152e-12
-2.41853e-13
-4.85937e-15
-3.53063e-17
-1.86787e-19
-8.41855e-22
-3.0248e-24
-8.8461e-27
-2.02392e-29
-3.79453e-32
7.14571e-32
2.8575e-33
8.24658e-35
2.02211e-36
0.451295
0.123065
0.0239083
0.00362578
0.000816518
2.7401e-05
5.94898e-07
9.08744e-09
1.03692e-10
9.223e-13
6.54559e-15
3.73776e-17
1.71534e-19
3.74478e-21
7.23315e-14
-2.30896e-10
-4.19199e-10
-9.55794e-10
-5.86956e-12
-3.7614e-14
-5.24302e-18
-3.121e-22
-3.45327e-25
-1.27818e-27
-6.6464e-30
-2.06654e-32
6.10712e-34
2.14461e-35
5.82831e-37
1.35691e-38
0.451211
0.123024
0.0238883
0.00361714
0.000812097
2.70462e-05
5.83538e-07
8.92017e-09
1.03252e-10
9.45262e-13
6.93141e-15
4.03106e-17
1.81539e-19
7.6545e-19
2.75765e-11
2.0912e-07
-1.75069e-06
-1.80124e-14
-2.67515e-20
-2.04722e-22
1.39958e-28
8.29639e-31
-3.85287e-34
-3.66502e-35
-4.46091e-35
-4.31035e-37
1.71958e-36
6.09479e-38
1.70323e-39
3.86884e-41
0.45111
0.122945
0.0238401
0.00359592
0.000801487
2.61438e-05
5.50272e-07
8.25271e-09
9.57775e-11
9.07583e-13
7.04252e-15
4.41567e-17
2.20388e-19
3.27494e-18
3.31486e-10
0.0130969
0.00313252
-1.58388e-43
1.27514e-39
-4.00342e-43
-4.19322e-44
-4.49552e-43
-3.41491e-43
9.81487e-40
5.59852e-41
2.00158e-42
5.0093e-44
0.451
0.122825
0.0237561
0.00355844
0.00078255
2.44772e-05
4.85885e-07
6.88761e-09
7.97693e-11
8.37068e-13
7.72571e-15
5.55845e-17
2.91963e-19
-3.13265e-19
2.04619e-12
8.12619e-05
3.52745e-05
-5.9592e-50
2.1784e-44
1.40368e-42
1.4713e-44
7.76029e-47
2.32604e-46
2.75837e-41
2.20253e-42
9.10134e-44
2.98255e-45
0.450895
0.122674
0.0236433
0.00350691
0.000755695
2.20525e-05
3.91351e-07
8.79311e-09
8.45472e-12
4.83019e-15
1.5762e-18
1.69804e-20
1.73372e-23
4.09359e-21
-5.06123e-13
9.07932e-07
1.33486e-07
-4.57881e-46
5.45669e-38
1.55949e-37
7.33137e-40
9.4341e-43
5.9638e-46
3.18871e-43
8.73236e-45
2.70573e-46
9.58626e-48
0.450814
0.12253
0.0235304
0.00345438
0.0007273
1.94615e-05
2.92141e-07
4.67803e-09
-5.73394e-27
-9.03167e-18
-1.08499e-14
2.14925e-10
2.64965e-11
-1.62523e-22
-2.71603e-27
-3.86769e-30
3.67707e-37
6.45364e-31
5.21422e-33
1.33721e-35
1.66053e-38
1.14245e-41
9.23056e-41
1.05634e-42
9.01463e-45
6.95294e-47
0.450765
0.122437
0.0234582
0.0034208
0.000708139
1.77187e-05
2.3189e-07
2.56251e-09
-3.23968e-24
-5.79959e-18
-2.4659e-15
1.79383e-13
7.93546e-15
4.35997e-17
1.02608e-19
1.57082e-22
1.58505e-25
1.30796e-28
1.31952e-31
4.13716e-33
1.5008e-35
1.84983e-38
7.86802e-39
1.12953e-40
1.13061e-42
9.83679e-45
0.450768
0.122438
0.0234581
0.00342068
0.00070608
1.74182e-05
2.21466e-07
2.25336e-09
-5.89739e-27
-2.08164e-22
-4.08632e-20
9.30583e-19
4.17341e-20
3.46131e-22
2.20543e-24
8.75289e-27
2.15256e-29
3.83683e-32
8.96067e-35
1.49752e-37
1.10857e-39
5.31507e-42
2.49259e-41
3.93714e-43
4.17423e-45
3.75598e-47
0.450812
0.122528
0.0235291
0.00345386
0.000721713
1.86018e-05
2.58083e-07
3.1591e-09
-1.79335e-31
-5.61303e-26
-1.7164e-28
2.24116e-26
-7.16182e-25
-4.16983e-28
2.07055e-31
-2.43242e-31
-1.26808e-33
1.13261e-35
4.19919e-37
2.34896e-39
5.03883e-42
5.29732e-45
9.08758e-44
1.61481e-45
1.81132e-47
1.6474e-49
0.450894
0.122674
0.0236418
0.00350625
0.000748711
2.09276e-05
3.42597e-07
6.44268e-09
6.73083e-13
5.60735e-24
1.72316e-29
9.80924e-28
-2.89636e-38
2.69407e-30
1.89361e-29
1.16119e-31
2.29013e-37
-3.14499e-38
-6.031e-41
-1.50378e-40
8.01938e-47
4.50181e-41
4.75768e-41
4.60748e-43
1.07428e-45
1.05555e-48
3.23114e-46
5.91284e-48
6.83769e-50
6.30682e-52
0.450996
0.122822
0.0237541
0.00355764
0.000776422
2.34974e-05
4.4371e-07
5.98837e-09
6.52632e-11
6.7288e-13
4.91805e-15
1.68675e-17
2.52799e-20
3.28531e-23
9.53455e-26
2.74512e-28
1.23193e-32
4.73009e-54
1.00492e-49
3.32019e-46
1.64101e-47
5.97532e-50
6.54279e-53
9.99415e-49
1.71355e-50
1.90767e-52
1.60474e-54
0.451108
0.122943
0.023838
0.0035951
0.000797121
2.54694e-05
5.22168e-07
7.63781e-09
8.83598e-11
8.69586e-13
7.30736e-15
5.12217e-17
2.89965e-19
1.28799e-21
4.09789e-24
7.30724e-27
3.41513e-31
-2.31994e-60
6.28294e-56
7.61843e-52
2.15849e-52
1.46082e-54
1.10873e-55
2.34652e-51
3.66878e-53
3.43943e-55
2.25214e-57
0.451223
0.123023
0.023886
0.00361638
0.000809294
2.66417e-05
5.68144e-07
8.61164e-09
9.96999e-11
9.22701e-13
6.86532e-15
4.03528e-17
1.83203e-19
6.20334e-22
1.45566e-24
3.94675e-27
1.91415e-32
1.14896e-66
4.77181e-58
1.01968e-57
1.30561e-57
1.635e-59
5.16743e-58
3.51735e-54
5.03022e-56
6.97757e-58
5.579e-59
0.451291
0.123069
0.0239083
0.00362512
0.000814786
2.71819e-05
5.87669e-07
8.97311e-09
1.02939e-10
9.26108e-13
6.65835e-15
3.82624e-17
1.7331e-19
6.00325e-22
1.51579e-24
5.05603e-27
1.95714e-31
6.0195e-39
3.30981e-45
1.27355e-45
-1.2296e-52
1.05618e-50
3.90899e-53
3.33535e-58
1.05534e-61
-5.29635e-60
3.31009e-56
3.51701e-54
5.38029e-54
1.42716e-54
0.451341
0.123073
0.0239077
0.00362561
0.000815922
2.73175e-05
5.91277e-07
8.97733e-09
1.01287e-10
8.85579e-13
6.15935e-15
3.45171e-17
1.56808e-19
5.78507e-22
1.74302e-24
4.39939e-27
1.00909e-29
2.40949e-32
5.93509e-35
1.271e-37
2.20221e-40
3.01005e-43
3.09993e-46
2.30233e-49
1.2115e-52
4.71639e-56
-2.16566e-51
1.44663e-50
1.17383e-50
2.35645e-51
0.451411
0.123072
0.0238946
0.00362078
0.000814612
2.72261e-05
5.86539e-07
8.81677e-09
9.78023e-11
8.35292e-13
5.65531e-15
3.09535e-17
1.38966e-19
5.18599e-22
1.64178e-24
4.56494e-27
1.16873e-29
2.82758e-32
6.28822e-35
1.23379e-37
2.10654e-40
3.14091e-43
4.11865e-46
4.80361e-49
5.06366e-52
1.14511e-53
-8.06849e-48
3.38958e-47
1.88095e-47
3.05514e-48
0.451458
0.123064
0.0238769
0.00361314
0.000811586
2.70195e-05
5.77915e-07
8.59654e-09
9.39996e-11
7.88501e-13
5.23595e-15
2.8181e-17
1.25249e-19
4.6812e-22
1.50186e-24
4.24764e-27
1.09124e-29
2.60158e-32
5.72996e-35
1.14488e-37
2.07527e-40
3.77238e-43
9.47498e-47
-6.22982e-47
-2.97486e-48
1.26147e-48
-3.73802e-43
1.87825e-43
5.68844e-44
6.01445e-45
0.451514
0.123051
0.0238509
0.00360102
0.000806645
2.66574e-05
5.64745e-07
8.30776e-09
8.96515e-11
7.41175e-13
4.85266e-15
2.58416e-17
1.16346e-19
5.34435e-22
5.63462e-24
1.6197e-25
5.60302e-27
1.90577e-28
6.23369e-30
1.95283e-31
5.83649e-33
1.66222e-34
4.49664e-36
1.15468e-37
2.80748e-39
6.31057e-41
-4.06165e-38
2.49433e-39
2.73875e-40
1.51214e-41
0.451556
0.123054
0.0238263
0.00358444
0.000442257
4.62291e-05
4.20372e-06
3.39e-07
2.46068e-08
1.62672e-09
9.88666e-11
5.56854e-12
2.92646e-13
1.44408e-14
6.73195e-16
2.98168e-17
1.26089e-18
5.10773e-20
1.9847e-21
7.39514e-23
2.641e-24
9.03366e-26
2.96021e-27
9.29536e-29
2.79928e-30
8.08649e-32
2.24211e-33
5.9679e-35
1.52685e-36
3.74903e-38
0.4516
0.123042
0.023802
0.0035727
0.000439137
4.58077e-05
4.15846e-06
3.34778e-07
2.42574e-08
1.60079e-09
9.71428e-11
5.46557e-12
2.8706e-13
1.41637e-14
6.60149e-16
2.92114e-17
1.23223e-18
4.96875e-20
1.91813e-21
7.09368e-23
2.51324e-24
8.52889e-26
2.7735e-27
8.64386e-29
2.58301e-30
7.40521e-32
2.03756e-33
5.38269e-35
1.36693e-36
3.33169e-38
0.451622
0.12303
0.023787
0.00356649
0.000437585
4.55368e-05
4.12255e-06
3.30885e-07
2.38951e-08
1.57111e-09
9.49818e-11
5.32139e-12
2.78323e-13
1.36691e-14
6.33901e-16
2.78807e-17
1.16746e-18
4.66737e-20
1.78469e-21
6.53317e-23
2.29041e-24
7.69308e-26
2.47599e-27
7.63908e-29
2.26061e-30
6.41773e-32
1.74905e-33
4.57655e-35
1.15136e-36
2.78205e-38
0.451632
0.123024
0.0237803
0.00356372
0.000436884
4.54135e-05
4.10625e-06
3.29147e-07
2.37372e-08
1.55855e-09
9.40785e-11
5.26381e-12
2.74845e-13
1.34754e-14
6.2351e-16
2.73524e-17
1.14169e-18
4.54658e-20
1.73078e-21
6.30487e-23
2.19963e-24
7.35107e-26
2.35461e-27
7.23079e-29
2.12961e-30
6.02022e-32
1.63356e-33
4.25702e-35
1.06689e-36
2.56885e-38
0.451079
0.122193
0.02335
0.00343946
0.000412438
4.17749e-05
3.67038e-06
2.85372e-07
1.99429e-08
1.2684e-09
7.41761e-11
4.02297e-12
2.03832e-13
9.70897e-15
4.37134e-16
1.86888e-17
7.61538e-19
2.96591e-20
1.10613e-21
3.95469e-23
1.35643e-24
4.4641e-26
1.40992e-27
4.27396e-29
1.24373e-30
3.47547e-32
9.32773e-34
2.40595e-35
5.97232e-37
1.4263e-38
0.451082
0.122196
0.0233519
0.00344026
0.000412654
4.18155e-05
3.67621e-06
2.86044e-07
2.00073e-08
1.27376e-09
7.45721e-11
4.04937e-12
2.05455e-13
9.80233e-15
4.42229e-16
1.89552e-17
7.74896e-19
3.02984e-20
1.13513e-21
4.07892e-23
1.40641e-24
4.65368e-26
1.47789e-27
4.50372e-29
1.31721e-30
3.69836e-32
9.97059e-34
2.58225e-35
6.4339e-37
1.54181e-38
0.451085
0.122202
0.0233558
0.0034419
0.000413092
4.1899e-05
3.68823e-06
2.87427e-07
2.01414e-08
1.28504e-09
7.5415e-11
4.10625e-12
2.08979e-13
1.00062e-14
4.5342e-16
1.95431e-17
8.04721e-19
3.17456e-20
1.20128e-21
4.36266e-23
1.52068e-24
5.0873e-26
1.63344e-27
5.03137e-29
1.48686e-30
4.21559e-32
1.14718e-33
2.99731e-35
7.52986e-37
1.81846e-38
0.451093
0.12221
0.0233612
0.00344409
0.000413769
4.19369e-05
3.68941e-06
2.87532e-07
2.01619e-08
1.2878e-09
7.56883e-11
4.12771e-12
2.10431e-13
1.00958e-14
4.58643e-16
2.01332e-17
9.87659e-19
4.71637e-20
1.85572e-21
6.57054e-23
2.21782e-24
7.21917e-26
2.26678e-27
6.85593e-29
1.99496e-30
5.58037e-32
1.50048e-33
3.87857e-35
9.64818e-37
2.30978e-38
0.451107
0.122221
0.0233663
0.00344727
0.000753715
2.3805e-05
4.76582e-07
6.6327e-09
7.04023e-11
7.25452e-13
1.38923e-14
5.38619e-16
2.42166e-17
1.05883e-18
4.35087e-20
-1.24046e-18
-5.64488e-20
6.0406e-21
1.6111e-22
1.33887e-24
4.66312e-27
3.01372e-30
4.40179e-32
1.75121e-32
2.80441e-33
1.42132e-34
1.71739e-36
6.76359e-38
2.23826e-39
6.54344e-41
0.451113
0.122227
0.0233697
0.00344904
0.000755031
2.39419e-05
4.81808e-07
6.71671e-09
6.90171e-11
5.47174e-13
3.46393e-15
1.79792e-17
7.81912e-20
2.90028e-22
-1.01237e-17
-1.56617e-14
2.11334e-15
2.96468e-16
6.34574e-18
5.83995e-20
3.1449e-22
1.09224e-24
2.32856e-27
2.22478e-30
-3.88382e-33
-2.62443e-35
1.93714e-33
4.42912e-35
9.71526e-37
2.04193e-38
0.45112
0.122226
0.0233692
0.00344945
0.000755749
2.40484e-05
4.87086e-07
6.8588e-09
7.14769e-11
5.76965e-13
3.72823e-15
1.97585e-17
8.75483e-20
-2.62474e-21
-5.86853e-14
-7.14592e-11
3.9691e-11
3.29584e-12
6.30224e-14
5.84467e-16
3.53724e-18
1.54057e-20
4.80645e-23
1.2101e-25
2.48708e-28
3.97282e-31
3.22298e-29
7.05462e-31
1.48528e-32
3.00178e-34
0.451123
0.122216
0.0233608
0.00344701
0.000755368
2.40915e-05
4.90917e-07
6.99191e-09
7.42126e-11
6.14361e-13
4.09112e-15
2.23626e-17
1.01777e-19
-6.25245e-18
-1.40655e-10
-8.66007e-08
1.83099e-07
1.16029e-08
2.08967e-10
1.99104e-12
1.3522e-14
7.13484e-17
2.99511e-19
1.0455e-21
3.06752e-24
7.51345e-27
9.78204e-27
2.10995e-28
4.37849e-30
8.72226e-32
0.451121
0.12219
0.0233395
0.00343965
0.00075308
2.40147e-05
4.9144e-07
7.08562e-09
7.701e-11
6.60999e-13
4.60458e-15
2.63885e-17
1.2509e-19
-5.53171e-15
-1.40819e-07
4.45565e-05
-9.55002e-05
9.90388e-06
8.09672e-08
6.12942e-10
4.38636e-14
2.22166e-18
1.74905e-21
1.40102e-23
1.16934e-25
5.35882e-28
6.25211e-29
1.20386e-30
2.42036e-32
4.77728e-34
0.451117
0.122138
0.0232987
0.0034245
0.000747611
2.37164e-05
4.85004e-07
7.06508e-09
7.90472e-11
7.14041e-13
5.31857e-15
3.27292e-17
1.2432e-19
-2.37304e-12
-7.16324e-05
-0.24298
-0.173709
-4.64169e-10
-8.63027e-17
7.47354e-20
-8.13004e-25
-7.97584e-27
2.21283e-30
1.44647e-31
3.55974e-31
5.85982e-33
9.98819e-32
2.54439e-33
5.93644e-35
1.26389e-36
0.451111
0.122053
0.0232301
0.00339811
0.000737268
2.30512e-05
4.65496e-07
6.78197e-09
7.81809e-11
7.5684e-13
6.21427e-15
4.29783e-17
-2.56555e-19
-2.79448e-12
0.000717682
4396.19
45.5795
-2.01558e-39
-1.20783e-35
2.722e-39
1.9183e-39
5.56863e-39
4.58989e-39
7.85707e-35
2.89047e-36
8.63508e-38
2.11721e-39
0.4511
0.121933
0.0231304
0.00335835
0.000720688
2.18615e-05
4.2479e-07
5.9787e-09
6.8724e-11
7.23884e-13
6.81056e-15
4.74805e-17
2.18507e-19
2.85114e-14
1.14466e-05
64.1549
1.09706
4.85242e-45
8.49408e-39
2.69547e-38
1.34557e-39
2.42769e-41
3.56266e-43
2.5376e-38
2.09224e-39
9.01535e-41
2.84238e-42
0.451101
0.121788
0.023009
0.00330809
0.000698413
2.01078e-05
3.56943e-07
8.04927e-09
7.42388e-12
3.73683e-15
1.00117e-18
5.1471e-21
9.01921e-24
-9.06441e-14
-5.63368e-06
1.77607
0.0159221
-1.0644e-41
2.28584e-31
6.85092e-33
1.2804e-35
9.75343e-39
4.41525e-42
1.16926e-40
4.33673e-42
1.56058e-43
5.70234e-45
0.451096
0.121654
0.0228938
0.00325924
0.00067552
1.81792e-05
2.77004e-07
4.221e-09
-1.53552e-21
-4.27903e-13
-5.57589e-08
0.000907035
6.85443e-05
-2.16641e-16
5.11711e-20
1.34749e-22
8.44331e-29
2.09384e-25
4.80034e-28
5.85632e-31
4.36406e-34
2.14833e-37
5.74327e-38
4.06067e-40
2.77978e-42
1.91451e-44
0.451095
0.121571
0.0228228
0.00322899
0.000660408
1.68702e-05
2.27602e-07
2.44192e-09
-1.15299e-17
-1.37704e-11
-1.21026e-08
3.19523e-06
1.36136e-07
3.94916e-10
9.872e-13
1.48676e-15
1.48128e-18
1.29429e-21
2.87434e-24
3.93935e-27
3.23496e-30
1.76479e-33
1.08965e-35
8.64097e-38
6.43754e-40
4.58286e-42
0.451096
0.121571
0.0228221
0.00322881
0.000658801
1.66321e-05
2.18754e-07
2.18966e-09
-2.94581e-21
-5.9046e-16
-1.83085e-13
6.96972e-11
4.48105e-12
1.89543e-14
6.36367e-17
1.73896e-19
3.27299e-22
5.43544e-25
9.31301e-28
2.1916e-30
3.89035e-33
3.49223e-36
3.48022e-38
3.0415e-40
2.45211e-42
1.84558e-44
0.451097
0.121652
0.0228921
0.00325868
0.000671164
1.75044e-05
2.47858e-07
2.90511e-09
-4.71967e-25
-8.65727e-21
-4.08346e-22
6.73846e-19
-2.48081e-18
-3.25127e-22
7.53792e-25
-1.51363e-24
-8.3832e-27
4.60973e-29
1.69912e-31
3.94551e-34
5.31538e-37
4.27755e-40
4.61785e-41
6.36525e-43
6.38083e-45
5.35986e-47
0.451096
0.121784
0.0230066
0.00330721
0.000692932
1.92434e-05
3.16886e-07
5.73715e-09
4.96812e-13
6.67689e-23
1.019e-29
1.00146e-27
-1.58307e-31
-5.00879e-27
4.57398e-30
-9.15204e-29
-9.85285e-32
5.75772e-32
1.62708e-31
7.74321e-33
2.84766e-39
1.53102e-34
4.97189e-36
2.18534e-38
3.73981e-41
3.25746e-44
8.57934e-44
1.41217e-45
1.57851e-47
1.39697e-49
0.451103
0.121929
0.0231278
0.00335736
0.000715807
2.11307e-05
3.9432e-07
5.26823e-09
5.46756e-11
5.42306e-13
3.37775e-15
7.17724e-18
4.61306e-21
4.23637e-24
3.11706e-26
1.33867e-28
4.22795e-33
1.72592e-48
3.5588e-43
2.81999e-41
4.41154e-43
1.1066e-45
1.07717e-48
1.64876e-46
2.7295e-48
3.04486e-50
2.48499e-52
0.451112
0.122051
0.0232274
0.00339712
0.000733664
2.25451e-05
4.46881e-07
6.42376e-09
7.44856e-11
7.503e-13
6.6891e-15
5.13658e-17
3.24856e-19
1.65257e-21
6.26711e-24
1.33014e-26
6.25862e-31
-1.20189e-54
5.46286e-51
3.67831e-47
3.22976e-48
1.38689e-50
1.49483e-53
2.16285e-49
3.26613e-51
3.26565e-53
1.93686e-55
0.451131
0.122142
0.0232966
0.00342361
0.000745158
2.33976e-05
4.74776e-07
6.91059e-09
7.82998e-11
7.28905e-13
5.65729e-15
3.63542e-17
1.91606e-19
8.10751e-22
2.56286e-24
9.36036e-27
4.17965e-32
-2.81418e-62
5.65268e-58
1.11673e-53
6.65116e-54
5.724e-56
6.76627e-58
1.13249e-52
3.9342e-54
5.41721e-55
5.86976e-56
0.451108
0.122188
0.023338
0.00343872
0.000751512
2.38182e-05
4.86083e-07
7.02731e-09
7.7252e-11
6.76823e-13
4.84507e-15
2.85669e-17
1.38731e-19
5.5119e-22
1.76037e-24
8.31447e-27
5.95004e-31
2.71332e-38
7.01671e-45
1.09912e-45
-1.55831e-53
6.85288e-52
5.4094e-54
8.60581e-56
5.4934e-59
-5.28117e-58
1.87545e-50
5.4803e-51
7.42247e-52
5.92722e-53
0.451124
0.122205
0.0233582
0.00344629
0.000754238
2.39719e-05
4.88077e-07
6.97328e-09
7.46362e-11
6.2626e-13
4.24084e-15
2.35744e-17
1.08647e-19
4.18579e-22
1.36449e-24
3.89076e-27
1.03573e-29
2.87125e-32
8.28611e-35
2.01982e-37
3.72615e-40
5.10103e-43
5.24948e-46
4.11901e-49
2.56517e-52
-4.37149e-55
2.04637e-47
4.79316e-48
5.34023e-49
3.81545e-50
0.45112
0.122224
0.0233661
0.00344839
0.000754921
2.39706e-05
4.85464e-07
6.85305e-09
7.18184e-11
5.84513e-13
3.81315e-15
2.03972e-17
9.09657e-20
3.43607e-22
1.12186e-24
3.26508e-27
8.85979e-30
2.3261e-32
5.82556e-35
1.34368e-37
2.80792e-40
5.2979e-43
9.01289e-46
1.3835e-48
1.92588e-51
-1.21194e-51
2.23347e-44
4.09278e-45
3.65521e-46
2.27224e-47
0.451115
0.122225
0.0233679
0.00344827
0.00075446
2.38887e-05
4.80916e-07
6.71603e-09
6.9244e-11
5.51624e-13
3.51142e-15
1.83117e-17
7.98883e-20
2.97075e-22
9.61682e-25
2.77611e-27
7.33584e-30
1.80807e-32
4.14793e-35
8.74361e-38
1.7094e-40
3.69412e-43
1.57135e-45
-3.39265e-49
-8.62691e-49
-5.12979e-48
4.60068e-41
5.66824e-42
3.69479e-43
1.82588e-44
0.451107
0.12222
0.0233644
0.00344646
0.000753318
2.37687e-05
4.75361e-07
6.57771e-09
6.69885e-11
5.2565e-13
3.2896e-15
1.69042e-17
7.44234e-20
3.46836e-22
3.91683e-24
1.13655e-25
3.89726e-27
1.31167e-28
4.26164e-30
1.32784e-31
3.97238e-33
1.13638e-34
3.11321e-36
8.17242e-38
2.03362e-39
4.79667e-41
1.80447e-37
1.22448e-38
5.3884e-40
1.97565e-41
0.451094
0.122208
0.0233592
0.0034433
0.000413563
4.18994e-05
3.6839e-06
2.86871e-07
2.00928e-08
1.28151e-09
7.51756e-11
4.0904e-12
2.07981e-13
9.94795e-15
4.50496e-16
1.94238e-17
8.01417e-19
3.17421e-20
1.20866e-21
4.42298e-23
1.5551e-24
5.24976e-26
1.70234e-27
5.30301e-29
1.58818e-30
4.575e-32
1.26805e-33
3.38219e-35
8.68929e-37
2.14923e-38
0.451086
0.1222
0.0233539
0.00344108
0.000412878