/*--------------------------------*- C++ -*----------------------------------*\
  =========                 |
  \\      /  F ield         | OpenFOAM: The Open Source CFD Toolbox
   \\    /   O peration     | Website:  https://openfoam.org
    \\  /    A nd           | Version:  10
     \\/     M anipulation  |
\*---------------------------------------------------------------------------*/
FoamFile
{
    format      ascii;
    class       volVectorField;
    location    "1.5";
    object      U;
}
// * * * * * * * * * * * * * * * * * * * * * * * * * * * * * * * * * * * * * //

dimensions      [0 1 -1 0 0 0 0];

internalField   nonuniform List<vector> 
96305
(
(0.0993325 -5.00435e-05 0.00240203)
(0.0982344 -0.000146538 0.00303025)
(0.0971076 -0.000238735 0.0028008)
(0.0960424 -0.000323744 0.00249562)
(0.0951632 -0.000388184 0.00223536)
(0.094455 -0.000429515 0.00201381)
(0.0938594 -0.000467762 0.00182845)
(0.0933646 -0.000513722 0.00168117)
(0.0929809 -0.00056456 0.00156604)
(0.0927077 -0.000618 0.00147372)
(0.0925386 -0.00067419 0.00139667)
(0.0924752 -0.000732651 0.00132911)
(0.0925274 -0.000790647 0.00126497)
(0.0927056 -0.000841651 0.00119812)
(0.0930077 -0.000874214 0.00112196)
(0.0934116 -0.000873367 0.00103069)
(0.093866 -0.000825625 0.000919624)
(0.0942982 -0.000726312 0.000787701)
(0.09463 -0.000583412 0.000636897)
(0.0948056 -0.000412906 0.000473288)
(0.0947987 -0.000230058 0.000303595)
(0.0946077 -4.55541e-05 0.000136611)
(0.0942372 0.000132355 -2.05812e-05)
(0.093696 0.000294591 -0.000158469)
(0.0929978 0.000432656 -0.000269638)
(0.0921445 0.000539142 -0.000349136)
(0.0912064 0.000606322 -0.000401589)
(0.0901355 0.000629356 -0.000423641)
(0.089294 0.000621615 -0.00043849)
(0.0877697 0.000569431 -0.00041753)
(0.0993272 -0.000152695 0.00240762)
(0.0982175 -0.000443461 0.00304643)
(0.097081 -0.000725862 0.00282485)
(0.0960178 -0.000987254 0.00252536)
(0.0951584 -0.00118073 0.00226098)
(0.0944628 -0.00131029 0.00202267)
(0.093858 -0.00144431 0.00182094)
(0.093348 -0.00159664 0.00166614)
(0.0929529 -0.00174941 0.00155015)
(0.0926672 -0.00190014 0.00146062)
(0.0924813 -0.00205616 0.00138831)
(0.0923986 -0.00222165 0.00132616)
(0.0924354 -0.00239188 0.0012671)
(0.0926102 -0.00254783 0.00120413)
(0.0929311 -0.00265259 0.00112974)
(0.0933792 -0.002656 0.00103729)
(0.0938959 -0.0025122 0.000921619)
(0.0943902 -0.00220623 0.000782065)
(0.0947675 -0.0017684 0.000621693)
(0.0949674 -0.00125525 0.000447829)
(0.0949713 -0.000716753 0.00026789)
(0.094787 -0.000184566 9.0828e-05)
(0.094418 0.000320743 -7.57572e-05)
(0.0938707 0.000779176 -0.000220641)
(0.0931458 0.00117102 -0.000335702)
(0.0922509 0.0014788 -0.000416511)
(0.091258 0.00168879 -0.00046408)
(0.0901294 0.00179443 -0.000471913)
(0.0892524 0.00181944 -0.000469535)
(0.0877142 0.00174548 -0.00042234)
(0.0993222 -0.000265172 0.00242131)
(0.098193 -0.000770432 0.00308728)
(0.097031 -0.00128899 0.00289475)
(0.0959727 -0.00175334 0.00262511)
(0.0951659 -0.00197629 0.00236065)
(0.094496 -0.00209566 0.00210824)
(0.0938764 -0.00231704 0.00190574)
(0.0933596 -0.00260704 0.0017611)
(0.0929665 -0.00290403 0.00165278)
(0.0926692 -0.00319189 0.00156606)
(0.0924519 -0.00348175 0.00149451)
(0.0923261 -0.0037878 0.00143368)
(0.0923229 -0.00411076 0.00137821)
(0.0924826 -0.00442112 0.00132155)
(0.0928364 -0.00464786 0.00125525)
(0.0933756 -0.0046864 0.0011704)
(0.0940247 -0.00443833 0.0010591)
(0.0946455 -0.00387474 0.000918908)
(0.0950995 -0.00306508 0.000753201)
(0.0953147 -0.00212464 0.000570773)
(0.0952889 -0.00114597 0.000380403)
(0.0950449 -0.000173265 0.000192162)
(0.0945963 0.00075822 1.55864e-05)
(0.0939589 0.00159524 -0.000138855)
(0.0931473 0.00229954 -0.000264251)
(0.0921727 0.00281091 -0.000357145)
(0.0910974 0.00305661 -0.000413074)
(0.0898821 0.00307287 -0.000419052)
(0.0889612 0.00298679 -0.00040842)
(0.0872711 0.00277858 -0.000347704)
(0.0993115 -0.000386969 0.00244695)
(0.0981103 -0.00113416 0.00316274)
(0.0969094 -0.00204438 0.00306938)
(0.0958273 -0.00306889 0.00281597)
(0.0951804 -0.00333035 0.00254731)
(0.0945933 -0.00334086 0.00213098)
(0.0939115 -0.00356614 0.00180274)
(0.093375 -0.00386199 0.00158962)
(0.0929941 -0.00419519 0.0014548)
(0.0927044 -0.00454554 0.00137228)
(0.0924732 -0.00492383 0.00132798)
(0.0923175 -0.00535764 0.00131188)
(0.0922958 -0.00586316 0.00131471)
(0.0924999 -0.00640805 0.00132565)
(0.0930235 -0.00687987 0.00132995)
(0.0938951 -0.00708573 0.00130924)
(0.0950028 -0.00682721 0.00124443)
(0.0960947 -0.00605007 0.00112545)
(0.0969207 -0.00489685 0.000955444)
(0.097388 -0.00356633 0.000748122)
(0.0975352 -0.00219484 0.000520098)
(0.0974305 -0.00085581 0.000283749)
(0.0971883 0.000428589 4.7818e-05)
(0.0967524 0.00165653 -0.00016471)
(0.0960141 0.00274995 -0.000346116)
(0.0951549 0.00382378 -0.00048169)
(0.0936834 0.00448483 -0.000465381)
(0.0920296 0.00461785 -0.0003544)
(0.0907954 0.0045362 -0.000249672)
(0.0887139 0.0042401 -0.000144192)
(0.0992955 -0.000492851 0.00248578)
(0.0978126 -0.00143962 0.00325635)
(0.0964862 -0.00257714 0.00355527)
(0.093141 -0.0036451 0.00265902)
(0.0707602 -0.00405214 0.00393646)
(0.0695204 -0.00267815 0.00101274)
(0.0697524 -0.00291673 -0.000677002)
(0.0713626 -0.00371828 -0.00096092)
(0.0729633 -0.00447977 -0.000836839)
(0.0743113 -0.00516336 -0.000589016)
(0.0753425 -0.00578842 -0.000334372)
(0.076117 -0.00644697 -0.000104972)
(0.0767769 -0.00722879 9.22026e-05)
(0.0775309 -0.00815262 0.00025598)
(0.0786153 -0.00908655 0.000379735)
(0.0801796 -0.0096954 0.000446321)
(0.0821108 -0.00951468 0.000429606)
(0.0839668 -0.00828839 0.000311857)
(0.0852971 -0.00630036 0.000100913)
(0.0860033 -0.00406414 -0.000160328)
(0.0862267 -0.00188895 -0.000416897)
(0.0860478 0.000127861 -0.000611266)
(0.0852437 0.0019461 -0.000688174)
(0.0837166 0.00353799 -0.00068761)
(0.0817197 0.0048372 -0.000659861)
(0.0805784 0.00580846 -0.000669258)
(0.0943049 0.0054846 -0.00145012)
(0.0927567 0.00546181 -0.00111377)
(0.0916674 0.00529161 -0.000877535)
(0.0896553 0.00485201 -0.000616121)
(0.0992794 -0.000584412 0.0025195)
(0.0977154 -0.00170209 0.00335613)
(0.0963044 -0.00286049 0.00375692)
(0.0930041 -0.003848 0.00287085)
(0.0708784 -0.00357742 0.00432518)
(0.0705136 -0.004251 0.00102491)
(0.0712502 -0.00517855 -0.000837516)
(0.0736677 -0.00609486 -0.00110404)
(0.0759331 -0.0068668 -0.000961385)
(0.0777813 -0.00747582 -0.000676717)
(0.0790445 -0.00801772 -0.000378175)
(0.0797482 -0.00867733 -9.76148e-05)
(0.0800493 -0.00965326 0.000165027)
(0.0802467 -0.0110578 0.000415713)
(0.0807841 -0.012762 0.000644749)
(0.0821669 -0.0141975 0.000805903)
(0.0846541 -0.0143804 0.000788374)
(0.0873276 -0.0125843 0.000518969)
(0.0885087 -0.00933389 0.000238727)
(0.0881114 -0.00581131 5.24179e-05)
(0.0871947 -0.00267589 -0.000108903)
(0.0867121 0.000139682 -0.000300102)
(0.0867531 0.00297719 -0.000464408)
(0.086841 0.00569361 -0.00058359)
(0.0865712 0.00794554 -0.000686883)
(0.0861493 0.0094181 -0.000811413)
(0.0900522 0.00826302 -0.000761055)
(0.0880599 0.00821765 -0.000289095)
(0.0868459 0.00796082 -1.04495e-05)
(0.0844599 0.00716558 0.000229319)
(0.0992649 -0.000690296 0.00255111)
(0.0976348 -0.00201495 0.00344841)
(0.0961178 -0.00338567 0.00391327)
(0.0927185 -0.0046523 0.00307279)
(0.0706633 -0.00440386 0.00446522)
(0.070323 -0.00566499 0.00107766)
(0.0709618 -0.00718263 -0.000821104)
(0.0734226 -0.00843781 -0.00105353)
(0.0756972 -0.00929967 -0.000856758)
(0.077424 -0.00977847 -0.0005389)
(0.0783327 -0.0100844 -0.00022419)
(0.078364 -0.0105724 7.68627e-05)
(0.0776505 -0.0116616 0.000385848)
(0.0766093 -0.0137368 0.000724312)
(0.0760965 -0.0169512 0.00109225)
(0.0771986 -0.0206625 0.00147438)
(0.0780197 -0.0211692 0.00218273)
(0.0738092 -0.0156403 0.00420764)
(0.0656489 -0.00931016 0.00561144)
(0.0578257 -0.00550856 0.0055807)
(0.0527532 -0.00400517 0.00483129)
(0.0504906 -0.00314483 0.00407968)
(0.0488864 -0.00160498 0.00357196)
(0.047116 0.000637499 0.00310521)
(0.0468083 0.0031172 0.00241013)
(0.0500691 0.00590197 0.00139423)
(0.0658761 0.00602997 0.00194597)
(0.0642507 0.0063397 0.00210407)
(0.0635508 0.00643725 0.00197171)
(0.0622143 0.00606845 0.00176657)
(0.0992461 -0.000810578 0.00258607)
(0.0975259 -0.0023779 0.00355068)
(0.0958523 -0.00403341 0.00408542)
(0.0922726 -0.00563713 0.00329766)
(0.0702154 -0.00546802 0.00463257)
(0.0696727 -0.00738092 0.0012192)
(0.0702025 -0.00959302 -0.000635135)
(0.0726869 -0.0113003 -0.000822962)
(0.0750288 -0.0122431 -0.000600962)
(0.0766715 -0.0123897 -0.000294211)
(0.077158 -0.012112 -2.2313e-05)
(0.0763349 -0.0120583 0.000225676)
(0.0741779 -0.0129989 0.000531463)
(0.0706861 -0.0157472 0.00103731)
(0.0655386 -0.0206947 0.00203281)
(0.0568538 -0.02501 0.00445712)
(0.0552349 -0.0296861 0.00982061)
(0.0704196 -0.0346469 0.00521544)
(0.0822804 -0.0304026 -0.000484588)
(0.0874021 -0.023937 -0.00308443)
(0.0896935 -0.0194586 -0.00396045)
(0.0917524 -0.0149344 -0.00404877)
(0.0927276 -0.00908808 -0.00344792)
(0.0909939 -0.00295478 -0.00233793)
(0.0850528 0.00160121 -0.000809797)
(0.0766212 0.00333011 0.000198377)
(0.0802965 0.00636671 0.000508124)
(0.0750184 0.00582424 0.00131653)
(0.0714829 0.00542463 0.00158493)
(0.0669114 0.00469576 0.00164965)
(0.0992199 -0.000933434 0.00262816)
(0.0973618 -0.00275497 0.00367478)
(0.0954286 -0.00473539 0.00429735)
(0.0914965 -0.00676862 0.00358598)
(0.069361 -0.00677081 0.00485958)
(0.0683924 -0.00956219 0.00146685)
(0.0686747 -0.0127838 -0.000279882)
(0.0711884 -0.0152175 -0.000392374)
(0.073767 -0.0162519 -0.000170617)
(0.0756036 -0.0157614 -1.65723e-05)
(0.0754504 -0.0142761 0.000131754)
(0.0720357 -0.0125824 0.000529257)
(0.0643138 -0.0115944 0.00128702)
(0.0510494 -0.0120429 0.00241629)
(0.0309255 -0.0146849 0.00389998)
(0.0259963 -0.0429645 0.00868653)
(0.0379352 -0.0876854 -0.00446136)
(0.0895529 -0.0581394 -0.0134343)
(0.0917135 -0.0208715 -0.00961229)
(0.0812383 -0.00639431 -0.00625673)
(0.073462 -0.00366308 -0.00470597)
(0.0701816 -0.00129666 -0.00278901)
(0.0723471 0.00192534 -0.00171975)
(0.0744439 0.00773336 -0.00189263)
(0.0748275 0.0116334 -0.00210795)
(0.0734858 0.0124912 -0.00187172)
(0.0638696 0.0120044 0.00111327)
(0.0611216 0.0105016 0.00192517)
(0.0589249 0.00923712 0.00227825)
(0.0545253 0.00733001 0.00216861)
(0.0991827 -0.00103885 0.00267946)
(0.0971148 -0.00308916 0.00382806)
(0.0947651 -0.00539813 0.00456472)
(0.0902166 -0.00792355 0.00396806)
(0.0678432 -0.00824993 0.00518275)
(0.0660005 -0.012334 0.00187755)
(0.0656712 -0.0171799 0.000317634)
(0.0681544 -0.0210065 0.000311056)
(0.0710592 -0.0222655 0.000522308)
(0.0699773 -0.0191765 0.00170007)
(0.0625003 -0.0136089 0.00352885)
(0.0508453 -0.00850432 0.0047557)
(0.0367998 -0.00503211 0.0050246)
(0.02162 -0.00430745 0.00433116)
(0.0133757 -0.0201517 0.00401236)
(-0.0199842 -0.0562445 0.00240991)
(0.0172775 -0.108748 -0.0209018)
(0.034234 0.0167306 0.00302817)
(0.00912388 0.00649617 0.00554568)
(-0.0030079 0.00434504 0.00305182)
(0.00766662 -0.00712669 -0.000768839)
(-0.00236175 -0.0120704 0.00504359)
(-0.00474062 -0.0104899 0.00212206)
(0.0038622 -0.00268548 0.00117825)
(0.0140775 0.00534787 0.00195848)
(0.0206338 0.00877767 0.00257559)
(0.0153898 0.00640115 0.00395868)
(0.0176233 0.00626785 0.00380365)
(0.0201625 0.00629428 0.00358369)
(0.0215235 0.00454684 0.00264168)
(0.0991321 -0.0010965 0.00274006)
(0.0967609 -0.00328977 0.00401186)
(0.0937858 -0.00585974 0.00489252)
(0.0882397 -0.00886415 0.00446196)
(0.0653117 -0.00972826 0.00563749)
(0.0617368 -0.0156625 0.00252558)
(0.0598653 -0.0231843 0.0012774)
(0.0613469 -0.0293535 0.00181116)
(0.0605494 -0.0282099 0.00560501)
(0.0609553 -0.0260119 0.00695257)
(0.0669993 -0.0257494 0.00398607)
(0.0719927 -0.0222023 0.00156434)
(0.0714467 -0.0157432 0.00104247)
(0.0628939 -0.00901353 0.00206638)
(0.0395939 -0.0104915 0.00519864)
(-0.0395434 -0.0242986 -0.00156728)
(-0.0123877 -0.0328407 -0.0196923)
(0.00735475 -0.00664584 -0.00194135)
(-0.0284848 -0.0114861 0.00238847)
(-0.0364993 -0.013672 0.00110154)
(-0.0374121 -0.011855 0.000904221)
(-0.0333669 -0.0095721 0.000638684)
(-0.0257085 -0.00830558 0.000179273)
(-0.0179023 -0.00857818 -0.000185694)
(-0.00997089 -0.00614035 0.000244214)
(-0.00415643 -0.00499295 -0.000193297)
(0.00371418 -0.00463172 -0.00148262)
(0.0990678 -0.00106739 0.00280687)
(0.0962972 -0.00323364 0.0042175)
(0.0924657 -0.00587792 0.00526718)
(0.085463 -0.0091683 0.00505699)
(0.06142 -0.0107711 0.00624497)
(0.054591 -0.0190276 0.00348192)
(0.0489645 -0.0305821 0.00299836)
(0.0453632 -0.041132 0.00812035)
(0.0603473 -0.059 0.00259482)
(0.0861495 -0.0551801 -0.0112745)
(0.0938555 -0.0346019 -0.0142068)
(0.091979 -0.017482 -0.0123643)
(0.0878258 -0.00697352 -0.00912358)
(0.0816205 0.00534016 -0.00478554)
(0.0576558 0.0213966 0.00349194)
(-0.0338461 0.0211331 0.00203629)
(-0.0146062 0.0242837 -0.0189446)
(0.00652817 0.0100227 -0.0016751)
(-0.0235019 -0.00455418 0.00078214)
(-0.0286951 -0.0106025 -0.00130143)
(-0.0285154 -0.0129276 -0.0018245)
(-0.0253296 -0.0132715 -0.00207873)
(-0.0201007 -0.0122654 -0.00262031)
(-0.0094992 -0.0120188 -0.00485177)
(-0.00334232 -0.0103481 -0.00421243)
(0.00144842 -0.00880008 -0.00415039)
(0.00923827 -0.00678118 -0.00472076)
(0.098996 -0.00091499 0.00287228)
(0.095769 -0.00279726 0.00442256)
(0.0909258 -0.0051781 0.00564541)
(0.0821044 -0.00829009 0.00569057)
(0.0561885 -0.0105819 0.00695641)
(0.0439919 -0.0207354 0.00464281)
(0.0290133 -0.0361755 0.00669182)
(0.00481102 -0.0654823 0.00936664)
(0.0510521 -0.0997451 -0.0169696)
(0.0811757 -0.0275737 -0.0170242)
(0.0672134 0.00194455 -0.00936162)
(0.051417 0.0107312 -0.00160459)
(0.0364604 0.00674769 0.00137308)
(0.0430831 0.00995582 0.0065392)
(0.0378372 0.0420266 0.00758779)
(-0.0277367 0.0581625 0.00741647)
(-0.0142105 0.0762258 -0.0163366)
(0.00435453 0.0228147 -0.000768774)
(-0.0171014 0.000415526 6.7003e-05)
(-0.0181941 -0.00595851 -0.00186293)
(-0.0162779 -0.00888502 -0.0027488)
(-0.0127031 -0.0101815 -0.00316804)
(-0.00802878 -0.0101702 -0.00354263)
(0.0052914 -0.00982363 -0.00533952)
(0.00876377 -0.00861708 -0.0049861)
(0.0119961 -0.0074713 -0.00474596)
(0.0177649 -0.00551359 -0.0051074)
(0.0989318 -0.000626258 0.00292562)
(0.0952897 -0.00192753 0.00459126)
(0.0895052 -0.00361226 0.00595846)
(0.078932 -0.0058817 0.00623981)
(0.0506002 -0.00828571 0.00761779)
(0.0317243 -0.017432 0.00577466)
(0.0028358 -0.0333199 0.00447659)
(-0.0391761 -0.0740066 -0.00618492)
(0.00240095 -0.0253238 -0.00281228)
(0.014635 -0.0122937 0.00368194)
(0.0103269 0.0328665 0.00784842)
(-0.0231951 0.0686244 0.00806148)
(0.00457981 0.111678 -0.0157435)
(-0.0251613 0.00461294 0.00240024)
(-0.0397718 -0.000837357 0.00167518)
(-0.033553 -0.00387326 -0.000456669)
(-0.00913138 0.0154289 0.0011196)
(0.00218433 0.000723873 -0.000602371)
(0.00455517 -0.00364484 -0.000951272)
(0.00600588 -0.0055966 -0.00152016)
(0.00811338 -0.00646363 -0.00199777)
(0.0114678 -0.00688491 -0.00231034)
(0.0240704 -0.00644334 -0.00283571)
(0.0239297 -0.00525666 -0.0027883)
(0.0242045 -0.00432668 -0.00268348)
(0.0258833 -0.00277869 -0.00301371)
(0.0988933 -0.000230224 0.00295569)
(0.0950026 -0.000710274 0.00468633)
(0.0886499 -0.00133526 0.00613506)
(0.0769961 -0.00218248 0.00655861)
(0.0465453 -0.00390973 0.00799738)
(0.023286 -0.00853242 0.00656311)
(-0.0179568 -0.0170749 -0.00114271)
(-0.0580094 -0.0326896 -0.0108017)
(0.00763849 -0.0345 -0.0104659)
(-0.02531 -0.00533572 0.00431019)
(-0.0307023 0.0207465 0.00854833)
(-0.0228896 0.0510508 0.00790138)
(0.0351641 0.062763 -0.00950273)
(0.0860694 0.0263426 -0.00993628)
(0.0898446 0.00394355 -0.00564687)
(0.0810907 -0.00341156 -0.00297247)
(0.0728204 -0.00252288 -0.000686016)
(0.0673232 -0.00237211 7.2091e-05)
(0.061502 -0.00241102 0.000119289)
(0.0557524 -0.00249737 -7.16093e-05)
(0.0503498 -0.00270575 -0.000318164)
(0.046003 -0.00298751 -0.000550161)
(0.0454281 -0.0012698 -0.000214724)
(0.0405585 -0.000605468 -0.00032367)
(0.0370053 -0.000231107 -0.000402134)
(0.0338148 0.000257132 -0.000829653)
(0.0988932 0.000206355 0.00295576)
(0.0950017 0.000639616 0.00468644)
(0.0886476 0.00121571 0.00613504)
(0.0769917 0.0020174 0.00655848)
(0.0455715 0.00142332 0.00805348)
(0.0215385 0.00273473 0.00673147)
(-0.0221474 0.00562786 -0.00233665)
(-0.0605469 0.00385422 -0.0119732)
(0.00822572 0.0030619 -0.017461)
(-0.0483683 -0.000268701 0.00314988)
(-0.056478 -0.0111241 0.00561682)
(-0.0304057 -0.0229512 0.00698585)
(0.0254821 -0.0311329 0.00287521)
(0.0821654 -0.0189631 -1.19518e-05)
(0.0982193 -0.00838984 0.000274757)
(0.0941278 -0.00411655 0.00092122)
(0.0873538 -0.00321918 0.00121084)
(0.0824676 -0.00177983 0.00104337)
(0.0772643 0.000384883 0.000675822)
(0.071457 0.00231754 0.000265403)
(0.0652427 0.00342594 -8.41604e-05)
(0.0585304 0.00395072 -0.000236192)
(0.0452676 0.00639441 0.00017673)
(0.0399698 0.00600722 0.000106425)
(0.0360015 0.00540211 7.52481e-05)
(0.0322899 0.00415079 -0.000357791)
(0.0989313 0.000603007 0.00292583)
(0.0952868 0.00185857 0.00459166)
(0.0894978 0.00349556 0.00595874)
(0.0789184 0.00571984 0.00623975)
(0.0480929 0.00635077 0.0078341)
(0.0266744 0.0132512 0.00624863)
(-0.00971509 0.0264685 0.00115829)
(-0.0564803 0.0424726 -0.0102585)
(0.00701207 0.0346652 -0.00910435)
(-0.0042407 0.00873144 0.00281157)
(-0.00422092 -0.0267081 0.00772216)
(-0.01517 -0.0722323 0.00986543)
(0.0186532 -0.092442 -0.0145427)
(0.0740088 -0.0261229 -0.00576649)
(0.0590163 0.00220144 -0.000563018)
(0.039741 0.00824787 0.00162587)
(0.0274305 0.00174058 0.00195207)
(0.0253876 0.000155908 0.00115574)
(0.0292897 0.00338632 -0.000319115)
(0.0320396 0.00702825 -0.0010305)
(0.0328963 0.00938638 -0.00121198)
(0.0320686 0.0104218 -0.00110003)
(0.0247201 0.0115375 -0.00122529)
(0.0235305 0.0105171 -0.0011861)
(0.0227039 0.00930783 -0.00102363)
(0.0230421 0.00662896 -0.00155899)
(0.0989953 0.000893001 0.00287267)
(0.0957646 0.002732 0.00442347)
(0.090913 0.00506773 0.00564648)
(0.0820817 0.00813647 0.0056914)
(0.0530974 0.00961986 0.00727593)
(0.0377387 0.0196244 0.00520944)
(0.0165884 0.0358355 0.00693843)
(-0.0290137 0.0800439 -0.0025889)
(0.039334 0.0635663 -0.00353996)
(0.00599337 -0.00676928 0.00677917)
(-0.0110389 -0.000385228 0.00291929)
(-0.0257822 -0.00196832 0.000800293)
(-0.00153498 0.0221532 -0.00173484)
(0.0294885 0.00916809 0.00655985)
(0.0240599 -0.0378038 0.00825403)
(-0.0229729 -0.0682451 0.00806221)
(0.00270793 -0.11214 -0.0161795)
(-0.0268961 -0.00283366 0.00153631)
(-0.0417787 -0.000848209 -0.000184396)
(-0.0235467 0.00323501 -0.00106172)
(-0.00825943 -0.0242605 0.000550023)
(-0.0088403 -0.00572156 1.41395e-05)
(-0.00651461 0.00232927 -0.00175614)
(-0.00291077 0.0080324 -0.00230212)
(0.00113412 0.0117101 -0.00223036)
(0.00456629 0.0133603 -0.00177729)
(0.00525785 0.0143445 -0.00287209)
(0.00708046 0.0132245 -0.00275807)
(0.00907926 0.0116907 -0.00267146)
(0.0145826 0.00814219 -0.00406558)
(0.0990668 0.00104721 0.00280746)
(0.0962912 0.00317373 0.00421897)
(0.0924491 0.00577689 0.00526938)
(0.085432 0.00902784 0.00505947)
(0.0586485 0.0106704 0.00656435)
(0.0495754 0.0200518 0.00404904)
(0.0401326 0.0337891 0.00472486)
(0.0344004 0.0560734 0.0102816)
(0.0664783 0.0774809 -0.0109752)
(0.0903154 0.0462026 -0.0218552)
(0.0854777 0.0166832 -0.0177754)
(0.0760977 0.000492495 -0.0121981)
(0.0695963 -0.00464995 -0.00748137)
(0.0686864 -0.0144172 -0.00183148)
(0.051263 -0.0358963 0.00566662)
(-0.0264499 -0.0511058 0.00680042)
(-0.0146157 -0.0702109 -0.0165368)
(0.00463501 -0.0236444 -0.000644816)
(-0.0182214 -0.00488251 0.00154101)
(-0.0212813 0.00406543 -0.000890189)
(-0.0195586 0.010056 -0.00176375)
(-0.0161686 0.0137269 -0.0018637)
(-0.0123139 0.0147251 -0.00166469)
(-0.00912016 0.0161727 -0.00361917)
(-0.00493218 0.0150134 -0.00386549)
(-0.000516477 0.0129482 -0.00448823)
(0.00880916 0.00900609 -0.00675193)
(0.099131 0.00107839 0.00274086)
(0.0967541 0.00323604 0.00401404)
(0.0937662 0.00576954 0.00489602)
(0.0882022 0.00873935 0.00446643)
(0.0632301 0.0100925 0.00590408)
(0.0584252 0.0172035 0.00296155)
(0.0551337 0.0265716 0.0019489)
(0.0543718 0.0336089 0.00431885)
(0.0568334 0.0380363 0.00785486)
(0.0725981 0.043265 0.000851508)
(0.0863638 0.038317 -0.00530821)
(0.0909378 0.0270624 -0.006781)
(0.0891133 0.0158348 -0.00562641)
(0.081185 0.00446354 -0.0028102)
(0.0541949 -0.00371745 0.00388505)
(-0.0351042 -0.0102535 0.000146422)
(-0.0145084 -0.0174239 -0.0191116)
(0.00582706 -0.0139954 -0.00132639)
(-0.0232113 -0.00192561 0.00285132)
(-0.0286932 0.004817 0.00079167)
(-0.0283378 0.0107255 -0.000448767)
(-0.0258435 0.0143803 -0.00102141)
(-0.0220204 0.0150552 -0.0014284)
(-0.0183219 0.0159631 -0.00354989)
(-0.0125364 0.0149655 -0.0041782)
(-0.00640883 0.0125704 -0.0052198)
(0.00261764 0.00921433 -0.00715266)
(0.0991817 0.00102288 0.00268046)
(0.0971071 0.00304183 0.00383083)
(0.0947438 0.00531895 0.00456942)
(0.0901754 0.00781461 0.00397442)
(0.0664066 0.00878125 0.00538516)
(0.0639667 0.0137885 0.00217416)
(0.0630631 0.0197826 0.000750777)
(0.065339 0.0247541 0.00081036)
(0.0666659 0.0249749 0.00215241)
(0.0620535 0.0194051 0.00513793)
(0.0557459 0.0144199 0.00644556)
(0.0511346 0.0113367 0.00589006)
(0.0456192 0.00831014 0.00511948)
(0.0363272 0.0067231 0.00448361)
(0.0234612 0.0183368 0.00479728)
(-0.0391296 0.0347415 -0.00138603)
(-0.011981 0.0414546 -0.0199357)
(0.00510915 0.00250473 -0.00183849)
(-0.0256307 -0.00400421 0.00453213)
(-0.0304896 -8.1452e-05 0.00373432)
(-0.0315947 0.00714904 0.00186268)
(-0.0309077 0.0117869 6.92506e-05)
(-0.0283302 0.0135327 -0.00105282)
(-0.0228181 0.0137665 -0.00145577)
(-0.0164896 0.0132418 -0.00206061)
(-0.0105694 0.0116677 -0.00293035)
(-0.00373443 0.00930689 -0.00414904)
(0.0992188 0.00091949 0.0026294)
(0.0973539 0.00271377 0.00367834)
(0.0954064 0.00466664 0.00430322)
(0.0914524 0.00667434 0.0035938)
(0.0684039 0.00730824 0.00500868)
(0.0671675 0.0107495 0.00166018)
(0.0672289 0.0146548 -6.15085e-06)
(0.0697033 0.0176296 -6.14602e-05)
(0.0725262 0.0188163 9.74575e-05)
(0.0739228 0.0176484 0.000307697)
(0.0710222 0.0145399 0.00100702)
(0.0628003 0.010899 0.00204939)
(0.0494754 0.00804362 0.00302839)
(0.0313475 0.00664796 0.00360128)
(0.0134013 0.0149595 0.0037551)
(-0.00973391 0.0555925 0.00488817)
(0.0196167 0.105745 -0.0166097)
(0.0643958 -0.0145012 -0.00342079)
(0.0312067 -0.0132936 0.00547397)
(0.0175462 -0.00988769 0.00281872)
(0.028978 -0.00566296 0.00333703)
(0.0291272 -0.00642487 0.00488858)
(0.00627762 -0.00735818 0.00503751)
(-0.0155891 -0.00115219 0.00529563)
(-0.0210861 0.00613002 0.0030438)
(-0.0216483 0.00912575 0.000776449)
(-0.00599887 0.00400707 0.00208286)
(-0.00554375 0.00468619 0.00212122)
(-0.000828334 0.00427835 0.00183637)
(0.00585939 0.00366457 0.000876995)
(0.099245 0.000798569 0.00258722)
(0.0975182 0.0023424 0.00355414)
(0.0958299 0.00397425 0.00409153)
(0.0922296 0.00555617 0.00330608)
(0.0695845 0.00594294 0.00474289)
(0.0689302 0.00830957 0.00134186)
(0.0693694 0.01094 -0.000467366)
(0.0718319 0.0129365 -0.000619983)
(0.0741988 0.0139011 -0.000386179)
(0.0758131 0.0137574 -0.000118271)
(0.0760945 0.0130098 6.71337e-05)
(0.0745637 0.0124157 0.000273008)
(0.0706029 0.0127958 0.000683616)
(0.0632795 0.0149398 0.00150584)
(0.0506525 0.018606 0.00303837)
(0.0383484 0.027905 0.0073499)
(0.0557141 0.0543829 0.00618413)
(0.0890451 0.0521724 -0.00756567)
(0.0981427 0.0309803 -0.0111937)
(0.0944746 0.0161209 -0.0101045)
(0.0888801 0.00885477 -0.00854375)
(0.0833669 0.00489215 -0.00698959)
(0.0768586 0.0043741 -0.00527945)
(0.0697549 0.00568495 -0.00306427)
(0.0597261 0.00594037 -0.000366229)
(0.0504096 0.00421313 0.0012277)
(0.0664009 0.00137652 0.00144536)
(0.0628765 -0.000552962 0.00171785)
(0.0609905 -0.00208659 0.00189321)
(0.0579478 -0.00261855 0.00201582)
(0.0992637 0.000680065 0.0025524)
(0.0976267 0.00198484 0.00345213)
(0.0960957 0.00333539 0.00391963)
(0.0926743 0.00458348 0.00308171)
(0.070238 0.00478639 0.00455365)
(0.0698543 0.00639543 0.00115534)
(0.0704445 0.00820581 -0.000730362)
(0.0728792 0.00964168 -0.000942093)
(0.0751225 0.0105316 -0.000728235)
(0.0767382 0.0108748 -0.000407128)
(0.0773536 0.0109427 -9.70962e-05)
(0.0768631 0.0112167 0.000198902)
(0.0753835 0.0122906 0.00051407)
(0.0733278 0.0147941 0.00089636)
(0.0714343 0.0191686 0.00144159)
(0.0693015 0.0238186 0.00240239)
(0.0644679 0.0224591 0.00576827)
(0.061715 0.0185139 0.00832429)
(0.0638387 0.0169178 0.00635714)
(0.0672084 0.0153947 0.00380262)
(0.0701365 0.0140478 0.00205685)
(0.0726741 0.0130811 0.000850266)
(0.0751 0.0130177 -6.11702e-05)
(0.0780762 0.0132814 -0.000796943)
(0.0810473 0.0125469 -0.00110867)
(0.0823456 0.01002 -0.000894992)
(0.0812791 0.00503091 0.00219189)
(0.0770973 0.00298054 0.00285934)
(0.073487 0.00146901 0.00306012)
(0.0682212 2.65786e-05 0.00279533)
(0.0992782 0.00057591 0.0025208)
(0.0977075 0.00167705 0.00335995)
(0.0962821 0.00281863 0.00376341)
(0.0929615 0.00379068 0.00287975)
(0.0706018 0.00384329 0.00440296)
(0.0703054 0.00486213 0.00105524)
(0.0709755 0.0060625 -0.000840738)
(0.073374 0.00713734 -0.00108228)
(0.0755822 0.00794807 -0.00089834)
(0.0772947 0.00849787 -0.000585254)
(0.0783102 0.00894455 -0.000270724)
(0.0786228 0.00955416 2.50695e-05)
(0.078372 0.0106205 0.000314292)
(0.077902 0.0123639 0.000610315)
(0.077832 0.014742 0.000900995)
(0.0790879 0.0171692 0.00112413)
(0.0817838 0.0180805 0.0011242)
(0.0825003 0.0153982 0.00137641)
(0.0786123 0.0104102 0.00209661)
(0.0718035 0.00578125 0.00266523)
(0.0643492 0.00247521 0.00290684)
(0.057525 0.000440519 0.0029697)
(0.0519523 -0.000442539 0.00296326)
(0.048473 -0.000306684 0.00287998)
(0.0477927 0.000313007 0.0026562)
(0.0511425 0.000424368 0.0020792)
(0.0800724 -0.00184827 0.00149734)
(0.0790482 -0.0025111 0.00186109)
(0.0783843 -0.00298592 0.00181651)
(0.0773257 -0.003622 0.00149468)
(0.0992944 0.000485977 0.00248709)
(0.0978047 0.00141946 0.0032602)
(0.0964644 0.00254329 0.0035617)
(0.0930983 0.00359915 0.00266806)
(0.0704794 0.00344477 0.00419715)
(0.0701497 0.00348028 0.00100407)
(0.0708814 0.0042554 -0.000733395)
(0.0732029 0.00508801 -0.00096795)
(0.0753536 0.00579742 -0.00083403)
(0.0771379 0.00640231 -0.000581783)
(0.0784497 0.00696932 -0.000319192)
(0.0793273 0.0076317 -7.24961e-05)
(0.0799157 0.00852346 0.000154908)
(0.0804587 0.00969766 0.000363765)
(0.0812744 0.0110172 0.000546911)
(0.0826352 0.0120381 0.000676736)
(0.0845562 0.0120653 0.000705515)
(0.0865943 0.0106907 0.000571521)
(0.0880312 0.00831562 0.000311023)
(0.0885234 0.00568645 4.93726e-05)
(0.0882492 0.00333169 -0.000142699)
(0.0875719 0.00147238 -0.000249901)
(0.0868021 0.000116917 -0.000280765)
(0.0861671 -0.000889438 -0.000270272)
(0.0858085 -0.00187099 -0.000278658)
(0.0862595 -0.00304664 -0.000368231)
(0.095766 -0.00152596 -0.000711021)
(0.0944612 -0.00188037 -0.0003662)
(0.0934677 -0.00225711 -0.000223575)
(0.0915739 -0.0027603 -0.000175123)
(0.0993103 0.00038168 0.00244827)
(0.0981025 0.00111864 0.00316658)
(0.0968879 0.00201836 0.00307579)
(0.0957855 0.0030326 0.00282547)
(0.0951107 0.00328357 0.00255925)
(0.0944888 0.00328246 0.00214601)
(0.0937636 0.00349615 0.00182139)
(0.0931745 0.00378161 0.00161239)
(0.092731 0.00410615 0.0014823)
(0.092368 0.00445069 0.00140489)
(0.0920544 0.00482742 0.00136655)
(0.0918046 0.00526547 0.00135735)
(0.0916803 0.00578406 0.0013681)
(0.0917748 0.00635363 0.00138844)
(0.0921851 0.00686453 0.00140447)
(0.0929424 0.00712522 0.00139887)
(0.093934 0.0069343 0.00135335)
(0.0949041 0.00623261 0.00125931)
(0.0955821 0.00516715 0.00112041)
(0.0958622 0.00396607 0.000951131)
(0.095786 0.00281381 0.000767709)
(0.0954875 0.00181391 0.0005862)
(0.0950629 0.000991481 0.000414315)
(0.0946322 0.000300496 0.000252315)
(0.0941672 -0.000319845 9.02111e-05)
(0.0937661 -0.0010445 -4.83009e-05)
(0.0927849 -0.00156926 -5.09819e-05)
(0.0916795 -0.00185606 5.94571e-06)
(0.0908888 -0.00204243 1.6134e-05)
(0.0893596 -0.00235466 -7.97278e-06)
(0.0993211 0.000261423 0.00242261)
(0.0981853 0.000759418 0.00309109)
(0.0970097 0.0012705 0.0029013)
(0.0959303 0.00172745 0.00263457)
(0.0950948 0.00194286 0.00237326)
(0.0943881 0.00205459 0.00212391)
(0.0937233 0.00226873 0.00192463)
(0.0931519 0.00255272 0.00178378)
(0.0926945 0.00284574 0.00168004)
(0.0923229 0.00313227 0.00159877)
(0.0920203 0.00342423 0.00153365)
(0.0918 0.00373759 0.00148042)
(0.0916893 0.00407406 0.00143366)
(0.0917352 0.00440611 0.00138719)
(0.0919644 0.00466444 0.00133296)
(0.0923736 0.00474609 0.00126242)
(0.0928905 0.00455313 0.0011685)
(0.0933693 0.00405827 0.00104975)
(0.0936712 0.00333805 0.000909814)
(0.0937249 0.00252449 0.000757424)
(0.093543 0.00173126 0.000600662)
(0.093186 0.0010219 0.000447887)
(0.0927138 0.000409355 0.000302742)
(0.0921749 -0.00012562 0.000167595)
(0.0915863 -0.000618886 4.43911e-05)
(0.0909441 -0.00104177 -6.10451e-05)
(0.0902852 -0.00129355 -0.000140367)
(0.0895439 -0.00145277 -0.000183917)
(0.0890104 -0.00157296 -0.000235102)
(0.0879149 -0.00176868 -0.000262604)
(0.0993261 0.000150436 0.00240891)
(0.0982099 0.00043683 0.00305023)
(0.0970599 0.000714782 0.00283135)
(0.0959759 0.000971816 0.00253478)
(0.0950883 0.00116093 0.0022735)
(0.0943566 0.00128619 0.00203845)
(0.0937075 0.00141612 0.00184025)
(0.0931442 0.00156495 0.00168941)
(0.0926865 0.00171532 0.00157796)
(0.0923291 0.00186525 0.00149372)
(0.0920618 0.00202257 0.00142757)
(0.0918877 0.00219243 0.00137254)
(0.0918267 0.00237122 0.00132184)
(0.091893 0.00254038 0.0012686)
(0.0921016 0.00266489 0.0012055)
(0.0924307 0.00269464 0.00112624)
(0.0928252 0.00258494 0.00102582)
(0.0931963 0.00232238 0.000904008)
(0.0934499 0.00194021 0.00076411)
(0.0935311 0.00150182 0.000613293)
(0.0934328 0.00106498 0.000457794)
(0.0931926 0.000664671 0.0003045)
(0.0928442 0.000312566 0.00015699)
(0.0924266 5.39828e-06 1.91719e-05)
(0.091955 -0.000264228 -0.000107881)
(0.0914231 -0.000497192 -0.000218649)
(0.0908557 -0.000688538 -0.00030453)
(0.0901839 -0.000850627 -0.000349721)
(0.0896738 -0.000970713 -0.000388438)
(0.0886443 -0.00110166 -0.0003958)
(0.0993313 4.92739e-05 0.00240334)
(0.0982267 0.000144291 0.00303403)
(0.0970863 0.00023501 0.00280719)
(0.0960002 0.000318562 0.00250479)
(0.095093 0.000381559 0.00224749)
(0.0943491 0.000421521 0.00202906)
(0.0937104 0.000458548 0.00184713)