/*--------------------------------*- C++ -*----------------------------------*\
  =========                 |
  \\      /  F ield         | OpenFOAM: The Open Source CFD Toolbox
   \\    /   O peration     | Website:  https://openfoam.org
    \\  /    A nd           | Version:  10
     \\/     M anipulation  |
\*---------------------------------------------------------------------------*/
FoamFile
{
    format      ascii;
    class       volScalarField;
    location    "4";
    object      T;
}
// * * * * * * * * * * * * * * * * * * * * * * * * * * * * * * * * * * * * * //

dimensions      [0 0 0 1 0 0 0];

internalField   nonuniform List<scalar> 
96305
(
0.550758
0.189488
0.0461651
0.00859997
0.00128896
0.000161159
1.7259e-05
1.61506e-06
1.34162e-07
1.0022e-08
6.80517e-10
4.23879e-11
2.44125e-12
1.30923e-13
6.57952e-15
3.11573e-16
1.39679e-17
5.94936e-19
2.4135e-20
9.33882e-22
3.44974e-23
1.21692e-24
4.1002e-26
1.31961e-27
4.05779e-29
1.19418e-30
3.36305e-32
9.06219e-34
2.34034e-35
5.77836e-37
0.550776
0.189479
0.0461545
0.00859594
0.00128807
0.000161035
1.72457e-05
1.61368e-06
1.34021e-07
1.00082e-08
6.79269e-10
4.22826e-11
2.43317e-12
1.30367e-13
6.54585e-15
3.09801e-16
1.38877e-17
5.9185e-19
2.4036e-20
9.31419e-22
3.44644e-23
1.21792e-24
4.1111e-26
1.32568e-27
4.08552e-29
1.20501e-30
3.40128e-32
9.18058e-34
2.37333e-35
5.85965e-37
0.55079
0.189464
0.0461419
0.00859198
0.00128735
0.000160972
1.72426e-05
1.61346e-06
1.34003e-07
1.00068e-08
6.79023e-10
4.22432e-11
2.42853e-12
1.29956e-13
6.51754e-15
3.08289e-16
1.38277e-17
5.90396e-19
2.40476e-20
9.35099e-22
3.47214e-23
1.23074e-24
4.16437e-26
1.34494e-27
4.1446e-29
1.21988e-30
3.43419e-32
9.23812e-34
2.3776e-35
5.83241e-37
0.550814
0.18938
0.0460656
0.00856197
0.00128202
0.000159938
1.70868e-05
1.59418e-06
1.32037e-07
9.83607e-09
6.65926e-10
4.13295e-11
2.36977e-12
1.26491e-13
6.33442e-15
2.9996e-16
1.35265e-17
5.83647e-19
2.41416e-20
9.57025e-22
3.63277e-23
1.31938e-24
4.58373e-26
1.52323e-27
4.83776e-29
1.46925e-30
4.25463e-32
1.16822e-33
3.05466e-35
7.59425e-37
0.550997
0.18921
0.0459241
0.00843188
0.00193198
5.22314e-05
8.64427e-07
1.01566e-08
1.10809e-10
2.36141e-12
1.1126e-13
5.96083e-15
3.00513e-16
1.40071e-17
6.03693e-19
2.40032e-20
8.6975e-22
2.78655e-23
7.24465e-25
1.02656e-26
-3.85768e-28
-4.56733e-29
5.84459e-29
6.03794e-30
2.97879e-31
1.13708e-32
1.21924e-34
4.96261e-36
1.68688e-37
5.02692e-39
0.551023
0.189113
0.0458273
0.0083975
0.00192258
5.27725e-05
8.97768e-07
1.0741e-08
9.7987e-11
7.09695e-13
4.18646e-15
2.04352e-17
8.36761e-20
2.92279e-22
8.94808e-25
3.89694e-22
-3.21667e-21
-3.79661e-22
-1.50973e-23
-1.50048e-25
-6.8428e-28
-1.79118e-30
-3.54065e-33
7.44089e-35
8.85854e-36
4.99523e-37
2.44495e-37
1.55429e-38
6.69475e-40
2.29615e-41
0.551057
0.189058
0.045767
0.00836977
0.00191124
5.21856e-05
8.81912e-07
1.04557e-08
9.47023e-11
6.80999e-13
3.96858e-15
1.89265e-17
7.43367e-20
2.4307e-22
-6.12528e-27
1.85907e-18
-2.07327e-17
-2.99213e-18
-1.70251e-19
-2.29907e-21
-1.72109e-23
-8.57151e-26
-2.38492e-28
-2.86785e-31
-1.57534e-34
-8.58101e-38
2.68028e-35
2.04244e-36
9.19478e-38
3.28736e-39
0.551094
0.188979
0.0456741
0.00832488
0.00189146
5.09317e-05
8.44247e-07
9.80571e-09
8.71539e-11
6.15517e-13
3.50636e-15
1.61305e-17
5.96216e-20
1.75761e-22
9.36876e-23
3.89903e-15
-6.39892e-14
-1.05572e-14
-6.88627e-16
-1.03829e-17
-9.38814e-20
-5.95074e-22
-2.66001e-24
-7.90588e-27
-1.65591e-29
-2.54322e-32
-4.14373e-32
-3.91086e-34
7.5624e-36
5.6862e-37
0.551141
0.188851
0.0455269
0.00825135
0.00185765
4.86621e-05
7.75653e-07
8.63306e-09
7.38208e-11
5.05341e-13
2.7846e-15
1.19503e-17
3.72558e-20
7.50517e-23
1.62777e-18
3.62157e-12
-1.5534e-11
-4.0655e-13
-1.04769e-14
-2.48596e-17
-1.43699e-20
-1.12953e-22
-2.53819e-25
-1.73072e-27
-1.14481e-29
-4.10146e-32
-8.02633e-34
-8.896e-36
1.93438e-38
4.88083e-39
0.55119
0.188653
0.0452984
0.00813432
0.00180209
4.48253e-05
6.61089e-07
6.72945e-09
5.29838e-11
3.26008e-13
1.4104e-15
3.76546e-18
5.71835e-21
1.21885e-23
1.55709e-15
1.97862e-10
-8.32197e-09
-1.2778e-14
-2.44052e-19
-1.20499e-23
-1.69828e-28
2.75268e-32
-6.22742e-34
-3.22795e-33
-3.71706e-34
-2.45677e-36
-1.48456e-36
-9.41138e-39
4.85649e-40
2.30499e-41
0.551252
0.188364
0.0449637
0.00795984
0.00171685
3.8875e-05
4.91218e-07
4.10298e-09
2.487e-11
1.12425e-13
4.6977e-16
2.20183e-18
1.02708e-20
7.33383e-22
6.55299e-14
6.13362e-08
1.18408e-06
1.05922e-48
1.01338e-40
-1.06792e-42
-5.16963e-42
-1.02776e-41
-4.47702e-43
2.25858e-40
1.71201e-41
8.53631e-43
1.76932e-43
0.551333
0.187984
0.0445184
0.00772342
0.00159758
3.07067e-05
2.84635e-07
1.44024e-09
6.12103e-12
1.54845e-13
3.97749e-15
5.24601e-17
4.16038e-19
1.69564e-21
2.19303e-16
4.75066e-10
2.34752e-08
-3.53374e-59
3.07497e-45
3.72399e-43
1.07717e-44
4.34637e-47
4.67611e-44
1.22797e-39
1.05343e-40
5.3486e-42
2.52657e-43
0.551424
0.187557
0.0440064
0.00744773
0.00145341
2.14165e-05
1.01563e-07
1.18085e-10
1.8092e-13
9.46752e-16
9.50993e-19
7.37649e-19
3.25022e-21
4.83064e-24
-5.58187e-18
2.91918e-12
2.2008e-10
-2.26731e-53
1.19397e-40
9.30553e-39
1.63962e-40
5.0893e-43
6.44584e-46
2.68401e-41
9.60893e-43
3.60237e-44
1.63295e-45
0.551519
0.187173
0.0435393
0.00719407
0.00131513
1.35581e-05
1.39532e-08
5.53401e-12
-1.84605e-32
-4.06354e-22
-1.76289e-19
7.82569e-15
2.20934e-13
1.80347e-25
2.1409e-31
1.30369e-32
-3.55957e-38
8.40326e-34
5.2026e-35
5.2495e-37
1.85489e-39
3.02411e-42
2.7107e-39
5.31891e-41
6.92202e-43
8.06209e-45
0.551568
0.186939
0.0432564
0.00704056
0.00122547
9.25878e-06
1.51346e-10
6.49377e-12
-1.33397e-29
-1.87515e-22
-8.13181e-20
2.4383e-17
3.99863e-16
3.49938e-18
1.68639e-20
4.90597e-23
9.21116e-26
1.29801e-28
1.38778e-31
1.10317e-34
1.05426e-37
3.62659e-40
5.65535e-38
1.67668e-39
2.92926e-41
4.43125e-43
0.551568
0.186941
0.0432563
0.0070403
0.00121399
8.47064e-06
1.34614e-10
5.29538e-12
-7.20573e-31
-1.81884e-26
-1.76406e-24
7.32639e-23
7.38062e-22
9.7945e-24
7.61969e-26
3.63753e-28
1.14182e-30
2.61728e-33
8.94529e-36
2.77099e-38
4.46927e-41
5.71519e-44
2.18433e-40
6.99251e-42
1.24942e-43
1.95889e-45
0.551517
0.187169
0.0435364
0.00719278
0.00128471
1.10534e-05
1.05523e-09
8.68832e-12
-1.8372e-35
-2.02053e-30
2.39242e-31
-3.841e-31
-7.40112e-29
-1.30942e-29
-4.92589e-32
4.39736e-33
1.50824e-36
6.53281e-40
1.288e-39
5.49879e-41
3.15964e-43
6.43846e-46
3.08862e-42
8.52969e-44
1.35484e-45
1.89275e-47
0.551426
0.187553
0.0440024
0.0074457
0.00141477
1.74123e-05
4.5829e-08
7.3098e-13
8.62779e-16
9.53782e-22
1.21886e-26
2.46166e-27
7.60689e-34
8.93981e-28
7.24785e-28
-1.11219e-32
2.53877e-38
1.08163e-46
2.04843e-44
5.85794e-43
-5.85529e-50
4.10574e-45
2.11074e-42
7.43512e-44
3.34675e-46
5.03755e-49
2.79657e-44
6.98368e-46
1.07619e-47
1.53448e-49
0.551332
0.187978
0.0445125
0.00772064
0.00156183
2.6414e-05
1.86338e-07
5.69731e-10
7.06824e-12
3.385e-13
5.5236e-15
3.95073e-17
1.49247e-19
3.89406e-22
7.52065e-25
-4.34447e-30
6.15099e-35
-1.10449e-63
2.185e-51
2.69662e-47
7.06706e-48
5.40475e-50
2.3823e-51
1.71901e-46
4.0354e-48
5.89218e-50
7.59897e-52
0.551254
0.188356
0.0449574
0.00795651
0.00168936
3.53129e-05
3.90556e-07
2.67708e-09
1.29489e-11
7.13035e-14
7.31073e-16
1.24078e-17
1.20434e-19
5.80261e-22
1.23251e-24
-8.96844e-29
1.29203e-33
5.57763e-69
1.69738e-56
1.17326e-52
2.05334e-52
3.22749e-54
1.07266e-52
7.58631e-49
1.69398e-50
2.17255e-52
2.08282e-54
0.551187
0.18864
0.0452877
0.00813027
0.00178249
4.22471e-05
5.81249e-07
5.44185e-09
3.87336e-11
1.99772e-13
6.91343e-16
1.72312e-18
3.51364e-21
6.11397e-24
8.46988e-27
-1.6884e-29
2.4009e-34
-2.11023e-67
3.7179e-55
4.72588e-57
2.54462e-57
2.17133e-58
7.8314e-55
2.24096e-51
4.81369e-53
5.37035e-55
5.17692e-57
0.551178
0.18886
0.045524
0.0082483
0.00184431
4.69257e-05
7.20386e-07
7.68793e-09
6.32294e-11
4.16965e-13
2.13099e-15
7.66962e-18
1.7041e-20
2.00536e-23
1.32579e-26
-2.84749e-29
2.48837e-33
6.9931e-40
5.41556e-43
6.10333e-48
-6.67308e-49
1.86732e-49
1.78718e-51
4.21524e-55
8.26075e-60
-1.59813e-56
2.08079e-53
2.34924e-54
1.08776e-53
4.64767e-54
0.551063
0.188975
0.0456679
0.00832098
0.00188243
4.979e-05
8.07924e-07
9.16876e-09
7.96812e-11
5.5068e-13
3.06435e-15
1.36372e-17
4.73685e-20
1.22233e-22
2.14444e-25
2.40969e-28
3.60587e-31
3.28581e-32
3.84089e-34
1.81041e-36
5.36775e-39
1.12506e-41
1.63979e-44
1.57129e-47
9.32631e-51
-3.33584e-54
1.59401e-48
1.7761e-49
1.02275e-48
4.56861e-49
0.551059
0.189039
0.0457566
0.00836587
0.00190469
5.14066e-05
8.57488e-07
1.00256e-08
8.9503e-11
6.33691e-13
3.62119e-15
1.67776e-17
6.31264e-20
1.93931e-22
4.97276e-25
1.10724e-27
2.17988e-30
4.10894e-33
8.70805e-36
2.05672e-38
5.09815e-41
1.16192e-43
2.34488e-46
4.25766e-49
7.11967e-50
-6.2028e-49
1.47549e-43
1.43528e-44
1.1767e-44
1.34227e-45
0.551025
0.189108
0.0458202
0.0083933
0.00191834
5.23305e-05
8.84719e-07
1.04882e-08
9.48476e-11
6.80145e-13
3.95544e-15
1.89023e-17
7.50033e-20
2.50497e-22
7.22427e-25
1.88363e-27
4.72447e-30
1.16539e-32
2.62999e-35
2.32806e-38
-1.29047e-39
-5.55254e-41
-3.87683e-42
6.40981e-42
3.20324e-41
1.03043e-41
1.33724e-38
1.04973e-39
5.52844e-41
2.43582e-42
0.550999
0.189203
0.045917
0.00842811
0.00192421
5.23191e-05
8.82363e-07
1.04346e-08
9.39286e-11
6.70635e-13
3.91314e-15
1.95368e-17
1.09052e-19
1.58578e-21
4.92221e-23
1.56562e-24
4.12304e-26
6.24327e-28
-2.05702e-29
-2.59821e-30
-1.66169e-31
-8.55596e-33
-3.90192e-34
8.13192e-35
7.42722e-35
7.13651e-36
2.7049e-35
1.23294e-36
4.65024e-38
1.56822e-39
0.550816
0.189374
0.0460585
0.00855828
0.0012808
0.000159661
1.70371e-05
1.58688e-06
1.31134e-07
9.73925e-09
6.56827e-10
4.05701e-11
2.31231e-12
1.2256e-13
6.08729e-15
2.85593e-16
1.2744e-17
5.43581e-19
2.21986e-20
8.67268e-22
3.23724e-23
1.15373e-24
3.9259e-26
1.2766e-27
3.97324e-29
1.18543e-30
3.38619e-32
9.23935e-34
2.4134e-35
6.02676e-37
0.550793
0.189459
0.0461346
0.00858817
0.0012861
0.000160678
1.71891e-05
1.60553e-06
1.33021e-07
9.90183e-09
6.69186e-10
4.1424e-11
2.36719e-12
1.25755e-13
6.25335e-15
2.92904e-16
1.29936e-17
5.47932e-19
2.20101e-20
8.42783e-22
3.07601e-23
1.07026e-24
3.55162e-26
1.12534e-27
3.40718e-29
9.86977e-31
2.73791e-32
7.28077e-34
1.85947e-35
4.55759e-37
0.550779
0.189474
0.046148
0.0085923
0.00128685
0.000160746
1.71931e-05
1.60589e-06
1.33055e-07
9.90528e-09
6.69701e-10
4.14823e-11
2.37319e-12
1.26273e-13
6.28975e-15
2.94916e-16
1.30827e-17
5.51052e-19
2.20908e-20
8.44014e-22
3.07544e-23
1.06934e-24
3.55066e-26
1.12698e-27
3.42316e-29
9.9583e-31
2.77781e-32
7.43278e-34
1.91112e-35
4.7273e-37
0.55076
0.189482
0.0461581
0.00859624
0.00128773
0.000160867
1.72062e-05
1.60729e-06
1.33204e-07
9.92017e-09
6.71028e-10
4.16043e-11
2.38258e-12
1.26936e-13
6.33002e-15
2.97157e-16
1.31908e-17
5.55756e-19
2.22792e-20
8.51136e-22
3.10185e-23
1.07916e-24
3.58708e-26
1.14024e-27
3.46903e-29
1.01144e-30
2.82756e-32
7.58531e-34
1.95785e-35
4.86441e-37
0.551326
0.192859
0.0486805
0.00959426
0.00155228
0.000213366
2.55399e-05
2.71214e-06
2.59248e-07
2.25698e-08
1.80689e-09
1.34102e-10
9.2905e-12
6.04391e-13
3.71132e-14
2.1606e-15
1.19674e-16
6.32351e-18
3.1932e-19
1.5425e-20
7.13178e-22
3.15621e-23
1.33701e-24
5.42112e-26
2.10402e-27
7.81942e-29
2.78303e-30
9.49162e-32
3.10692e-33
9.74953e-35
0.551311
0.192864
0.0486926
0.00960116
0.00155462
0.000213916
2.56373e-05
2.72603e-06
2.60929e-07
2.27481e-08
1.82382e-09
1.35569e-10
9.40773e-12
6.13181e-13
3.77376e-14
2.20302e-15
1.22441e-16
6.49639e-18
3.29598e-19
1.60035e-20
7.43928e-22
3.3103e-23
1.40992e-24
5.74679e-26
2.2414e-27
8.36752e-29
2.99091e-30
1.02393e-31
3.36304e-33
1.05852e-34
0.551276
0.192876
0.0487206
0.00961696
0.00155992
0.000215151
2.58544e-05
2.7573e-06
2.64794e-07
2.31694e-08
1.86484e-09
1.39187e-10
9.7005e-12
6.35239e-13
3.93032e-14
2.30889e-15
1.29297e-16
6.92128e-18
3.54685e-19
1.74076e-20
8.18304e-22
3.68264e-23
1.58635e-24
6.53729e-26
2.57689e-27
9.71367e-29
3.50334e-30
1.20925e-31
4.00117e-33
1.26766e-34
0.551208
0.192879
0.0487615
0.00964579
0.00157063
0.000216972
2.60948e-05
2.78504e-06
2.67709e-07
2.34483e-08
1.88907e-09
1.41078e-10
9.83333e-12
6.43752e-13
3.98224e-14
2.34085e-15
1.3139e-16
7.06509e-18
3.64439e-19
1.80313e-20
8.5521e-22
3.88528e-23
1.6899e-24
7.03138e-26
2.79638e-27
1.0623e-28
3.8554e-30
1.33758e-31
4.44456e-33
1.41389e-34
0.551142
0.192852
0.0487992
0.00968503
0.00277541
0.000153674
5.55527e-06
1.4126e-07
2.69222e-09
4.29733e-11
8.10043e-13
2.95433e-14
1.64348e-15
9.64296e-17
5.46336e-18
2.96487e-19
1.48298e-20
6.33969e-22
2.9685e-23
1.54147e-24
7.30317e-26
3.18015e-27
1.31179e-28
5.17293e-30
2.18571e-30
2.73237e-31
5.11525e-33
2.79187e-34
1.25457e-35
4.92577e-37
0.551055
0.192853
0.0488433
0.00971466
0.00279294
0.000155741
5.66852e-06
1.44692e-07
2.726e-09
3.94921e-11
4.53811e-13
4.23673e-15
3.27773e-17
2.14087e-19
1.56781e-21
4.74788e-20
-7.09296e-18
-1.59706e-18
-7.48508e-20
-1.33567e-21
-1.37871e-23
-9.73649e-26
-5.03931e-28
-1.98998e-30
-6.31285e-33
-1.67758e-35
2.37584e-34
1.68767e-35
7.49413e-37
2.73507e-38
0.550986
0.19286
0.0488771
0.00973403
0.00280333
0.000157181
5.76769e-06
1.48793e-07
2.8407e-09
4.17976e-11
4.88167e-13
4.62326e-15
3.61036e-17
2.36268e-19
8.97002e-19
-8.07563e-16
-3.71483e-14
-8.47471e-15
-3.13327e-16
-4.31949e-18
-3.70342e-20
-2.29968e-22
-1.06214e-24
-3.99137e-27
-1.26866e-29
-3.42075e-32
3.21117e-30
1.81644e-31
7.11905e-33
2.35578e-34
0.550907
0.19285
0.0488949
0.00974472
0.00280873
0.000157975
5.83137e-06
1.5194e-07
2.94527e-09
4.42196e-11
5.28165e-13
5.1029e-15
4.03008e-17
2.62795e-19
8.83839e-16
-2.2407e-12
-9.10779e-11
-3.05303e-11
-8.92789e-13
-1.01857e-14
-8.34718e-17
-5.88466e-19
-3.78999e-21
-2.01361e-23
-8.42741e-26
-2.85141e-28
9.96133e-28
4.58707e-29
1.6649e-30
5.26323e-32
0.550812
0.192814
0.0488889
0.00974251
0.00280648
0.000157756
5.83601e-06
1.53266e-07
3.02049e-09
4.65169e-11
5.72465e-13
5.67444e-15
4.52353e-17
3.18502e-19
3.74193e-13
-2.13866e-09
-1.90643e-08
-6.53754e-08
-2.00737e-11
4.58592e-12
-5.48507e-16
1.3096e-19
-4.46857e-23
-7.20663e-27
-3.05322e-28
-2.16522e-29
1.16917e-29
4.60862e-31
1.56329e-32
4.68322e-34
0.550694
0.192736
0.0488437
0.00971842
0.0027912
0.000155715
5.72321e-06
1.50295e-07
3.00075e-09
4.74873e-11
6.02804e-13
6.07649e-15
4.74965e-17
5.5702e-18
8.75746e-11
1.22996e-06
-3.24788e-05
-4.30312e-12
-1.42841e-17
-2.55057e-20
2.15251e-26
-4.07195e-28
-6.84386e-31
-4.94164e-32
-9.80109e-32
-2.05174e-33
3.86275e-32
1.67231e-33
5.95674e-35
1.75405e-36
0.550554
0.192599
0.0487425
0.00966134
0.00275543
0.00015062
5.39985e-06
1.38969e-07
2.77566e-09
4.53409e-11
6.07851e-13
6.60043e-15
5.71503e-17
2.82543e-17
1.45917e-09
0.0312491
0.042412
-3.38044e-40
1.60875e-37
-1.7394e-39
-1.71556e-40
-2.77085e-39
-1.01679e-38
2.60583e-35
1.95636e-36
9.10253e-38
2.9744e-39
0.550406
0.192402
0.0485715
0.00956201
0.00269221
0.000141262
4.77743e-06
1.16058e-07
2.30677e-09
4.16152e-11
6.61434e-13
8.22847e-15
7.51238e-17
-1.15048e-18
1.78722e-11
0.000321232
0.000665864
-5.60926e-46
4.60046e-40
2.96407e-38
5.36912e-40
4.96473e-42
1.71733e-41
1.07326e-36
1.01795e-37
5.39612e-39
2.31059e-40
0.550271
0.192164
0.0483457
0.00942664
0.00260302
0.000127674
3.86596e-06
1.45013e-07
3.77374e-10
5.78973e-13
2.13782e-16
3.30772e-18
6.08871e-21
6.20715e-22
-5.87154e-12
5.94249e-06
5.40395e-06
-7.12465e-42
4.02973e-34
1.88718e-33
1.52113e-35
3.3681e-38
3.66813e-41
1.47046e-38
6.08893e-40
2.52434e-41
1.12264e-42
0.55017
0.191941
0.0481222
0.00928929
0.00250891
0.000113156
2.91312e-06
7.93785e-08
-2.62222e-24
-4.93806e-16
-1.96062e-13
3.80354e-09
2.99456e-09
-7.23834e-20
-2.06704e-24
-3.8866e-27
6.95088e-34
2.62515e-27
3.59874e-29
1.58681e-31
3.39847e-34
4.03712e-37
2.56772e-36
3.85046e-38
4.32255e-40
4.38384e-42
0.550112
0.191799
0.0479795
0.00920145
0.00244536
0.00010336
2.33158e-06
4.46142e-08
-6.959e-22
-3.45469e-16
-7.95899e-14
8.56386e-12
1.84166e-12
1.45256e-14
5.63145e-17
1.44182e-19
2.46277e-22
3.46827e-25
5.74503e-28
2.80163e-29
1.7565e-31
3.75158e-34
1.77019e-34
3.33438e-36
4.39143e-38
5.02821e-40
0.550115
0.191801
0.0479794
0.00920113
0.00243858
0.000101663
2.2301e-06
3.94342e-08
-1.84048e-24
-1.90027e-20
-1.92478e-18
8.15667e-17
1.10035e-17
1.59576e-19
1.7051e-21
1.15871e-23
4.94489e-26
1.53528e-28
6.37676e-31
1.85685e-33
2.19795e-35
1.80051e-37
8.18469e-37
1.67692e-38
2.31527e-40
2.72025e-42
0.550168
0.191938
0.0481196
0.00928795
0.00249061
0.000108328
2.58495e-06
5.44863e-08
-1.47479e-28
-7.49145e-24
-1.58873e-26
6.1865e-24
-1.78152e-22
-3.2034e-25
1.86572e-28
-3.86265e-28
-3.66294e-30
7.38691e-32
4.71833e-33
4.55993e-35
1.69242e-37
3.07879e-40
3.9911e-39
9.23055e-41
1.3513e-42
1.60816e-44
0.55027
0.192164
0.0483428
0.00942494
0.00258013
0.000121364
3.39667e-06
1.07473e-07
3.5393e-11
3.00259e-21
6.02687e-27
4.8662e-25
-1.34585e-34
2.68044e-27
3.13342e-26
3.56499e-28
6.90452e-33
-1.17586e-35
-1.77834e-37
-5.84907e-37
5.01349e-43
5.2428e-37
9.36204e-37
1.55857e-38
6.26491e-41
1.06187e-43
1.87842e-41
4.47997e-43
6.76767e-45
8.17746e-47
0.550401
0.192398
0.0485675
0.00955994
0.00267214
0.000135764
4.3696e-06
1.01175e-07
1.87633e-09
3.28173e-11
4.1479e-13
2.50513e-15
6.65497e-18
1.59526e-20
9.12615e-23
4.8011e-25
5.29771e-29
2.24309e-49
3.26638e-45
1.14344e-41
9.66946e-43
6.05252e-45
1.14118e-47
7.67206e-44
1.71394e-45
2.4929e-47
2.74834e-49
0.550551
0.192596
0.0487383
0.00965923
0.00274121
0.000146844
5.12825e-06
1.28632e-07
2.55739e-09
4.33588e-11
6.29665e-13
7.6433e-15
7.50412e-17
5.78802e-19
3.20165e-21
9.99075e-24
1.08052e-27
-7.45423e-56
6.15821e-51
4.60594e-47
2.20854e-47
2.56218e-49
2.00126e-50
2.37474e-46
4.83697e-48
5.92205e-50
5.0831e-52
0.550706
0.192733
0.048839
0.00971643
0.00278213
0.000153459
5.57477e-06
1.451e-07
2.89495e-09
4.62541e-11
5.9508e-13
6.05868e-15
4.77327e-17
2.81006e-19
1.14995e-21
5.41387e-24
7.86913e-29
1.72659e-60
5.787e-53
1.09569e-52
2.31575e-52
4.96314e-54
1.20347e-52
4.68981e-49
8.6008e-51
9.28816e-53
1.94295e-54
0.550808
0.192819
0.0488888
0.00974076
0.00280092
0.000156539
5.76656e-06
1.51337e-07
2.99709e-09
4.6657e-11
5.81317e-13
5.79554e-15
4.55849e-17
2.74457e-19
1.20615e-21
6.93319e-24
7.52873e-28
1.34767e-34
1.03847e-40
5.83694e-41
-1.24284e-47
7.26504e-46
4.4897e-48
6.82684e-53
3.6478e-56
-3.99626e-56
1.46183e-51
4.12626e-50
6.69652e-50
2.23254e-50
0.550886
0.192841
0.0488928
0.00974337
0.00280524
0.000157355
5.80483e-06
1.51579e-07
2.9553e-09
4.47654e-11
5.40204e-13
5.25742e-15
4.15019e-17
2.66106e-19
1.39285e-21
6.09827e-24
2.4182e-26
9.9421e-29
4.22462e-31
1.56497e-33
4.69605e-36
1.11211e-38
1.98458e-41
2.55479e-44
2.32957e-47
1.57943e-50
-4.34873e-48
1.26038e-46
1.10055e-46
2.78262e-47
0.550982
0.192851
0.0488716
0.00973203
0.0028014
0.000156898
5.7625e-06
1.49045e-07
2.85876e-09
4.2329e-11
4.97565e-13
4.73179e-15
3.69217e-17
2.39459e-19
1.31675e-21
6.35149e-24
2.81525e-26
1.17677e-28
4.51735e-31
1.52991e-33
4.50933e-36
1.16065e-38
2.62677e-41
5.28575e-44
9.6078e-47
1.81866e-49
-1.3734e-44
2.20013e-43
1.32746e-43
2.72286e-44
0.551055
0.192851
0.0488409
0.00971322
0.00279189
0.000155796
5.6826e-06
1.45493e-07
2.7519e-09
4.00366e-11
4.61746e-13
4.31909e-15
3.33663e-17
2.16714e-19
1.20751e-21
5.92531e-24
2.63765e-26
1.08804e-28
4.14096e-31
1.42661e-33
4.39849e-36
1.26806e-38
5.62037e-41
9.41741e-43
2.6637e-44
3.26091e-45
-4.84213e-40
9.08801e-40
3.01362e-40
4.04042e-41
0.55114
0.19285
0.048797
0.0096836
0.00277616
0.000153826
5.55917e-06
1.40799e-07
2.62891e-09
3.77038e-11
4.28763e-13
3.96304e-15
3.05427e-17
2.08057e-19
1.70514e-21
3.58126e-23
1.4836e-24
6.77377e-26
3.0201e-27
1.29476e-28
5.31998e-30
2.09539e-31
7.90579e-33
2.86393e-34
9.95393e-36
3.29921e-37
-3.8307e-35
8.77669e-36
1.08016e-36
7.62435e-38
0.551206
0.192876
0.0487593
0.0096445
0.00157012
0.000216843
2.60674e-05
2.7803e-06
2.66997e-07
2.33552e-08
1.87823e-09
1.39967e-10
9.73058e-12
6.35028e-13
3.91407e-14
2.29143e-15
1.28045e-16
6.85267e-18
3.51716e-19
1.73077e-20
8.16184e-22
3.68582e-23
1.59426e-24
6.60665e-26
2.62508e-27
1.00031e-28
3.65768e-30
1.28357e-31
4.32834e-33
1.40033e-34
0.551275
0.192873
0.0487178
0.00961557
0.00155941
0.000215013
2.58257e-05
2.7523e-06
2.64062e-07
2.30754e-08
1.8542e-09
1.38119e-10
9.60239e-12
6.26999e-13
3.86629e-14
2.26274e-15
1.26203e-16
6.72635e-18
3.43111e-19
1.6762e-20
7.84274e-22
3.5139e-23
1.50825e-24
6.20279e-26
2.44524e-27
9.24558e-29
3.35417e-30
1.16796e-31
3.90847e-33
1.25496e-34
0.551308
0.192862
0.0486906
0.00959993
0.00155415
0.000213788
2.56097e-05
2.72119e-06
2.60221e-07
2.26579e-08
1.81388e-09
1.34553e-10
9.31604e-12
6.05523e-13
3.71541e-14
2.1615e-15
1.19681e-16
6.32493e-18
3.19605e-19
1.54566e-20
7.1568e-22
3.17396e-23
1.34842e-24
5.49006e-26
2.14338e-27
8.02554e-29
2.88398e-30
9.94715e-32
3.29778e-33
1.04976e-34
0.551323
0.192856
0.0486785
0.00959304
0.0015518
0.000213234
2.55119e-05
2.70732e-06
2.58545e-07
2.24809e-08
1.79698e-09
1.33123e-10
9.20154e-12
5.97074e-13
3.65535e-14
2.12106e-15
1.17071e-16
6.16306e-18
3.10051e-19
1.49218e-20
6.87579e-22
3.0341e-23
1.28288e-24
5.19903e-26
2.02016e-27
7.53224e-29
2.69495e-30
9.25764e-32
3.0575e-33
9.69849e-35
0.550458
0.191517
0.0478136
0.00926778
0.00146746
0.000196616
2.28727e-05
2.35573e-06
2.1812e-07
1.83806e-08
1.42404e-09
1.02302e-10
6.86408e-12
4.32848e-13
2.57925e-14
1.45893e-15
7.86265e-17
4.04862e-18
1.99562e-19
9.42666e-21
4.27046e-22
1.85569e-23
7.73616e-25
3.09451e-26
1.18793e-27
4.37775e-29
1.54905e-30
5.26619e-32
1.72247e-33
5.41854e-35
0.550462
0.191522
0.0478177
0.00926996
0.00146822
0.000196804
2.29084e-05
2.3612e-06
2.18814e-07
1.84573e-08
1.43156e-09
1.02966e-10
6.91821e-12
4.36976e-13
2.6091e-14
1.47958e-15
7.99969e-17
4.13534e-18
2.04762e-19
9.72094e-21
4.4268e-22
1.93398e-23
8.10662e-25
3.25974e-26
1.25763e-27
4.65659e-29
1.65508e-30
5.64949e-32
1.8547e-33
5.85448e-35
0.550467
0.191533
0.0478261
0.00927444
0.00146977
0.000197192
2.29821e-05
2.37243e-06
2.20257e-07
1.86182e-08
1.4475e-09
1.04392e-10
7.03534e-12
4.45954e-13
2.67436e-14
1.52501e-15
8.30839e-17
4.33785e-18
2.1714e-19
1.04227e-20
4.7982e-22
2.11882e-23
8.97594e-25
3.64667e-26
1.42107e-27
5.31175e-29
1.9052e-30
6.5593e-32
2.17082e-33
6.90446e-35
0.55048
0.191548
0.047838
0.00928046
0.00147234
0.000197303
2.29626e-05
2.3684e-06
2.19846e-07
1.85909e-08
1.44656e-09
1.04428e-10
7.0458e-12
4.47259e-13
2.68775e-14
1.57142e-15
1.16203e-16
9.03516e-18
5.10512e-19
2.37887e-20
1.02924e-21
4.2832e-23
1.72291e-24
6.69123e-26
2.50549e-27
9.03665e-29
3.1387e-30
1.04973e-31
3.38358e-33
1.05096e-34
0.550502
0.191572
0.0478518
0.00929048
0.00260211
0.000138107
4.72558e-06
1.13122e-07
2.03655e-09
3.12166e-11
5.93591e-13
2.22955e-14
1.23016e-15
7.0625e-17
3.88092e-18
-4.42909e-17
2.74558e-17
6.33673e-18
2.6417e-19
4.59897e-21
4.53302e-23
2.91054e-25
1.37407e-27
2.68759e-29
4.54609e-30
2.99001e-31
6.63788e-33
2.97573e-34
1.19501e-35
4.36438e-37
0.550514
0.191584
0.04786
0.00929548
0.00260664
0.000138875
4.77668e-06
1.14795e-07
2.04271e-09
2.81127e-11
3.09308e-13
2.79158e-15
2.11108e-17
1.36364e-19
-2.48184e-16
-2.8314e-13
5.08839e-13
9.26472e-14
3.55365e-15
6.11781e-17
6.40924e-19
4.63013e-21
2.39859e-23
9.46032e-26
3.21495e-28
9.35302e-31
3.70813e-29
1.1089e-30
3.18657e-32
8.79558e-34
0.550526
0.191587
0.0478602
0.00929685
0.00260912
0.000139476
4.82756e-06
1.17163e-07
2.11394e-09
2.96144e-11
3.32522e-13
3.06397e-15
2.36079e-17
8.56805e-20
-8.24039e-13
-5.40494e-10
3.28621e-09
5.02703e-10
1.75984e-11
2.95372e-13
3.24711e-15
2.6007e-17
1.53232e-19
7.54922e-22
3.20571e-24
1.17016e-26
3.72925e-25
1.08667e-26
3.04234e-28
8.17761e-30
0.550534
0.191575
0.047845
0.00929084
0.00260797
0.000139724
4.86475e-06
1.1939e-07
2.19326e-09
3.14994e-11
3.64366e-13
3.46205e-15
2.73986e-17
-8.49237e-17
-1.14092e-09
1.26873e-07
7.63268e-06
1.03076e-06
3.37061e-08
5.67122e-10
6.78655e-12
6.32278e-14
4.70907e-16
2.93382e-18
1.54765e-20
6.88118e-23
7.65791e-23
2.19222e-24
6.02916e-26
1.59139e-27
0.550539
0.19154
0.0478049
0.00927212
0.00260057
0.000139312
4.87063e-06
1.20973e-07
2.27452e-09
3.3848e-11
4.09314e-13
4.0754e-15
3.36079e-17
-4.44333e-14
-6.69132e-07
0.000747895
-0.00126689
0.000576977
8.23492e-06
1.08731e-07
2.34568e-11
2.71244e-15
3.65367e-18
4.08432e-20
5.742e-22
4.4447e-24
6.28043e-25
1.62729e-26
4.37252e-28
1.14889e-29
0.550544
0.191469
0.0477271
0.0092333
0.00258277
0.000137678
4.81042e-06
1.20674e-07
2.3339e-09
3.65098e-11
4.71485e-13
5.03501e-15
4.38925e-17
-1.14444e-11
-0.000202719
-0.58531
-0.988138
-1.65997e-08
-1.22991e-14
6.52984e-16
-5.63266e-22
-1.08999e-23
8.98127e-27
6.85277e-28
3.00886e-27
8.61767e-29
1.33897e-27
4.57148e-29
1.42419e-30
4.03606e-32
0.55055
0.191351
0.0475955
0.00916544
0.00254902
0.000134015
4.62545e-06
1.16016e-07
2.30872e-09
3.86128e-11
5.48193e-13
6.56163e-15
6.40577e-17
2.30083e-11
0.0016563
6244.97
175.676
-6.07905e-36
-2.91108e-32
1.90896e-35
2.26124e-35
8.09417e-35
1.24337e-34
1.40753e-30
6.93194e-32
2.7605e-33
9.0006e-35
0.550555
0.191183
0.0474044
0.00906314
0.00249486
0.000127439
4.2368e-06
1.02639e-07
2.02815e-09
3.6582e-11
5.89367e-13
7.08107e-15
5.70658e-17
7.32769e-13
4.39624e-05
144.606
6.36779
5.5817e-41
6.51081e-35
3.26861e-34
2.935e-35
8.99312e-37
1.65913e-38
7.49198e-34
7.30705e-35
4.03049e-36
1.65892e-37
0.550579
0.190982
0.0471724
0.00893402
0.00242209
0.000117716
3.58488e-06
1.35572e-07
3.36825e-10
4.50214e-13
1.17249e-16
9.94328e-19
4.05215e-22
-8.72998e-13
-2.94324e-05
6.64977
0.170741
-9.33232e-38
9.26329e-28
4.72775e-29
1.52056e-31
1.99935e-34
1.56784e-37
4.65596e-36
2.45244e-37
1.1222e-38
5.06402e-40
0.550596
0.190796
0.0469527
0.00880865
0.00234729
0.000106993
2.81329e-06
7.3072e-08
-3.6288e-19
-9.9221e-12
-5.75829e-07
0.00979822
0.00219568
-3.82791e-14
4.94489e-17
1.81844e-19
2.9014e-25
4.81173e-22
1.88312e-24
3.96615e-27
5.11394e-30
4.35779e-33
1.18306e-33
1.10764e-35
1.00078e-37
9.09537e-40
0.550608
0.190682
0.0468172
0.00873086
0.00229783
9.96761e-05
2.3314e-06
4.32517e-08
-1.15537e-15
-4.17003e-10
-1.95359e-07
8.20872e-05
1.03267e-05
5.56355e-08
2.43161e-10
6.41989e-13
1.12151e-15
1.71031e-18
6.42487e-21
1.52157e-23
2.16889e-26
2.0545e-29
1.8363e-31
1.92366e-33
1.88981e-35
1.77307e-37
0.55061
0.190682
0.0468159
0.00873042
0.00229264
9.83365e-05
2.24422e-06
3.89477e-08
-4.06536e-19
-1.26012e-14
1.86718e-12
3.30371e-09
5.86242e-10
4.45499e-12
2.59908e-14
1.23641e-16
4.05776e-19
1.17911e-21
3.54249e-24
1.4262e-26
4.35422e-29
6.76681e-32
8.74822e-34
9.9277e-36
1.04118e-37
1.02209e-39
0.550596
0.190794
0.0469495
0.00880721
0.00233326
0.000103221
2.52925e-06
5.10627e-08
-1.50936e-22
-4.7888e-19
1.06767e-19
4.94073e-17
-3.69884e-16
-8.85284e-20
6.1949e-22
-7.25147e-22
-1.01002e-23
1.71428e-25
1.08935e-27
4.38424e-30
1.02412e-32
1.42816e-35
1.55015e-36
2.77531e-38
3.62991e-40
3.98917e-42
0.550574
0.190976
0.0471678
0.00893177
0.00240446
0.000112904
3.19804e-06
9.7688e-08
2.67178e-11
1.61671e-20
2.7988e-27
4.84363e-25
-2.62196e-28
-3.21777e-25
8.48015e-27
-1.63945e-26
-3.12313e-29
2.48128e-29
3.81016e-28
3.11605e-29
-1.6252e-36
1.00782e-30
5.57906e-32
4.22955e-34
1.2507e-36
1.88237e-39
3.7993e-39
8.14905e-41
1.19014e-42
1.37985e-44
0.550559
0.191177
0.0473994
0.00906058
0.00247921
0.000123382
3.94371e-06
9.08147e-08
1.60026e-09
2.67924e-11
2.88779e-13
1.08692e-15
1.24671e-18
2.24198e-21
3.25614e-23
2.50051e-25
2.02637e-29
2.60004e-44
4.39601e-39
5.552e-37
1.4918e-38
6.44477e-41
1.08058e-43
9.62939e-42
2.07892e-43
3.03114e-45
3.24252e-47
0.55055
0.191348
0.0475903
0.0091629
0.00253757
0.000131221
4.44786e-06
1.10067e-07
2.20046e-09
3.82073e-11
5.87107e-13
7.77204e-15
8.48659e-17
7.47286e-19
4.91705e-21
1.82082e-23
1.97898e-27
-2.33145e-50
2.16494e-46
1.26912e-42
1.90401e-43
1.40456e-45
2.61174e-48
1.66586e-44
3.28044e-46
4.28751e-48
3.33436e-50
0.550559
0.191475
0.0477229
0.00923099
0.00257506
0.000135932
4.71382e-06
1.18152e-07
2.31305e-09
3.72563e-11
5.00824e-13
5.57975e-15
5.10315e-17
3.75008e-19
2.0626e-21
1.30045e-23
1.73348e-28
-6.90623e-58
5.58267e-53
6.77359e-49
6.82103e-49
1.00701e-50
1.56544e-52
1.10539e-47
1.97571e-49
9.67577e-51
1.20995e-51
0.550524
0.191538
0.047802
0.00926975
0.00259571
0.000138245
4.8207e-06
1.20053e-07
2.28258e-09
3.46588e-11
4.30506e-13
4.40825e-15
3.72072e-17
2.57103e-19
1.42906e-21
1.15956e-23
2.30515e-27
5.85889e-34
2.15215e-40
5.02311e-41
-1.72811e-48
1.60576e-47
6.65873e-49
1.66998e-50
1.84184e-53
-5.01949e-54
1.32922e-46
4.97124e-47
8.73953e-48
9.10952e-49
0.550536
0.191559
0.04784
0.00928899
0.0026045
0.000139081
4.83873e-06
1.19122e-07
2.20648e-09
3.21143e-11
3.77693e-13
3.64922e-15
2.92456e-17
1.95986e-19
1.11124e-21
5.50633e-24
2.53371e-26
1.20225e-28
5.94249e-31
2.49103e-33
7.92986e-36
1.87741e-38
3.34719e-41
4.55413e-44
4.91909e-47
4.16593e-50
1.09426e-43
3.28306e-44
4.75206e-45
4.43392e-46
0.550527
0.191583
0.0478543
0.00929414
0.00260659
0.00013906
4.81298e-06
1.17102e-07
2.12461e-09
3.0008e-11
3.40156e-13
3.16365e-15
2.45373e-17
1.61185e-19
9.14824e-22
4.62401e-24
2.17542e-26
9.88038e-29
4.27306e-31
1.70019e-33
6.12424e-36
1.9903e-38
5.82802e-41
1.53885e-43
3.68232e-46
-5.6481e-48
9.044e-41
2.11969e-41
2.4605e-42
1.99832e-43
0.550516
0.191581
0.0478565
0.0092935
0.00260494
0.000138596
4.76895e-06
1.1481e-07
2.04988e-09
2.83474e-11
3.13622e-13
2.84406e-15
2.15784e-17
1.39516e-19
7.84811e-22
3.93321e-24
1.80212e-26
7.68991e-29
3.04982e-31
1.10857e-33
3.67068e-36
1.15214e-38
5.0659e-41
7.55924e-43
2.11782e-44
-1.98692e-44
1.41234e-37
2.2175e-38
1.87962e-39
1.21453e-40
0.550503
0.19157
0.0478482
0.0092884
0.00260102
0.000137918
4.71524e-06
1.12498e-07
1.98438e-09
2.7034e-11
2.94036e-13
2.62331e-15
1.97293e-17
1.33538e-19
1.1376e-21
2.51675e-23
1.04359e-24
4.70403e-26
2.07309e-27
8.79368e-29
3.58743e-30
1.4054e-31
5.30014e-33
1.92437e-34
6.71155e-36
2.24701e-37
4.19631e-34
3.60129e-35
2.06406e-36
9.91377e-38
0.550481
0.191545
0.0478343
0.00927846
0.00147163
0.000197134
2.29299e-05
2.36319e-06
2.19124e-07
1.85035e-08
1.43708e-09
1.03512e-10
6.96594e-12
4.40867e-13
2.64088e-14
1.50569e-15
8.21235e-17
4.29864e-18
2.16261e-19
1.04536e-20
4.85392e-22
2.16348e-23
9.26047e-25
3.80686e-26
1.50414e-27
5.7148e-29
2.08851e-30
7.34263e-32
2.48576e-33
8.09911e-35
0.550468
0.19153
0.0478223
0.00927233
0.00146904
0.00019701
2.29466e-05
2.36676e-06
2.19484e-07
1.85261e-08
1.43778e-09
1.03478e-10
6.95603e-12
4.39691e-13
2.62844e-14
1.49371e-15