/*--------------------------------*- C++ -*----------------------------------*\
  =========                 |
  \\      /  F ield         | OpenFOAM: The Open Source CFD Toolbox
   \\    /   O peration     | Website:  https://openfoam.org
    \\  /    A nd           | Version:  10
     \\/     M anipulation  |
\*---------------------------------------------------------------------------*/
FoamFile
{
    format      ascii;
    class       volScalarField;
    location    "3";
    object      T;
}
// * * * * * * * * * * * * * * * * * * * * * * * * * * * * * * * * * * * * * //

dimensions      [0 0 0 1 0 0 0];

internalField   nonuniform List<scalar> 
96305
(
0.451271
0.120795
0.0224987
0.00318073
0.000360531
3.40298e-05
2.74868e-06
1.93915e-07
1.21421e-08
6.83702e-10
3.49991e-11
1.64384e-12
7.14075e-14
2.88933e-15
1.09591e-16
3.9183e-18
1.32675e-19
4.26986e-21
1.30929e-22
3.83077e-24
1.07037e-25
2.85697e-27
7.28591e-29
1.77539e-30
4.13439e-32
9.21333e-34
1.9645e-35
4.00773e-37
7.83562e-39
1.4649e-40
0.451283
0.120787
0.022493
0.00317913
0.000360275
3.40038e-05
2.74661e-06
1.93751e-07
1.21293e-08
6.82756e-10
3.49342e-11
1.6397e-12
7.1168e-14
2.8769e-15
1.09023e-16
3.89573e-18
1.31904e-19
4.24745e-21
1.30386e-22
3.82054e-24
1.06933e-25
2.85932e-27
7.3054e-29
1.7836e-30
4.16234e-32
9.2943e-34
1.98574e-35
4.05663e-37
7.93725e-39
1.4837e-40
0.451291
0.120776
0.0224855
0.00317725
0.000360017
3.39855e-05
2.74576e-06
1.93706e-07
1.21269e-08
6.82638e-10
3.49216e-11
1.63821e-12
7.1035e-14
2.86797e-15
1.08558e-16
3.87701e-18
1.31347e-19
4.23749e-21
1.30466e-22
3.83612e-24
1.07743e-25
2.88973e-27
7.40073e-29
1.80963e-30
4.22335e-32
9.41414e-34
2.00659e-35
4.08647e-37
7.96251e-39
1.47955e-40
0.451306
0.120722
0.0224489
0.00316657
0.000358549
3.37854e-05
2.72448e-06
1.91797e-07
1.19838e-08
6.73427e-10
3.43953e-11
1.61069e-12
6.97026e-14
2.80888e-15
1.06235e-16
3.80078e-18
1.29536e-19
4.22546e-21
1.32162e-22
3.96249e-24
1.13781e-25
3.12661e-27
8.22076e-29
2.06813e-30
4.97405e-32
1.144e-33
2.509e-35
5.22123e-37
1.03494e-38
1.95099e-40
0.451423
0.120593
0.0223681
0.00311374
0.000548487
8.61365e-06
8.20189e-08
5.62944e-10
4.33531e-12
9.59639e-14
3.89339e-15
1.58602e-16
5.97358e-18
2.07176e-19
6.60988e-21
1.9261e-22
5.0086e-24
1.09688e-25
1.63418e-27
-9.29592e-30
-2.11254e-30
-1.15032e-31
7.91507e-32
6.20239e-33
2.30697e-34
6.65853e-36
5.34993e-38
1.66006e-39
4.29181e-41
9.72309e-43
0.451438
0.120529
0.0223213
0.00310132
0.000546012
8.71019e-06
8.5211e-08
5.84447e-10
3.05417e-12
1.26684e-14
4.27821e-17
1.19485e-19
2.79691e-22
5.57902e-25
9.73473e-28
1.35448e-30
-1.27305e-32
-7.4664e-34
-3.05751e-35
-1.10337e-36
-3.66629e-38
-1.13171e-39
1.25763e-37
4.94695e-38
3.91811e-39
1.65122e-40
7.99471e-41
3.87691e-42
1.26813e-43
3.29852e-45
0.451458
0.120488
0.0222888
0.00309026
0.000542587
8.60991e-06
8.36668e-08
5.68807e-10
2.95173e-12
1.21559e-14
4.05493e-17
1.10602e-19
2.48111e-22
4.6241e-25
7.34447e-28
1.04883e-30
1.42376e-33
1.8014e-36
2.02508e-39
2.06642e-42
1.91396e-45
7.72018e-48
1.09032e-44
1.52833e-43
3.72991e-44
2.96899e-45
1.20505e-43
7.36969e-45
2.74502e-46
7.53169e-48
0.451478
0.120429
0.0222402
0.0030729
0.000536743
8.39631e-06
8.00075e-08
5.3281e-10
2.71327e-12
1.09744e-14
3.57783e-17
9.40745e-20
1.9832e-22
3.32334e-25
4.37942e-28
4.39947e-31
3.79064e-34
5.51442e-37
1.48917e-39
3.79695e-42
1.95981e-44
4.78663e-47
8.77956e-50
2.83666e-52
8.60198e-51
5.36369e-51
1.59468e-46
1.14462e-47
4.76209e-49
1.37763e-50
0.451503
0.120337
0.0221637
0.00304454
0.000526747
8.01012e-06
7.3359e-08
4.68081e-10
2.29362e-12
8.99438e-15
2.83648e-17
6.95144e-20
1.23193e-22
1.39731e-25
8.31698e-29
3.51221e-32
-7.81377e-36
-1.6666e-38
-3.4479e-41
-5.18742e-44
-7.42944e-47
6.90679e-46
3.53429e-45
5.2355e-48
5.68381e-51
-2.91491e-48
8.61603e-43
1.43874e-44
1.86961e-46
2.13511e-48
0.451526
0.120195
0.0220453
0.00299948
0.000510332
7.3591e-06
6.23042e-08
3.63568e-10
1.64161e-12
5.78827e-15
1.42882e-17
2.15681e-20
1.81632e-23
9.32041e-27
4.85604e-30
-9.59212e-33
7.21987e-39
2.69464e-46
7.98793e-50
6.55598e-56
-3.20715e-55
1.0344e-40
2.30369e-39
1.69463e-41
1.84454e-45
-1.03015e-44
1.01148e-37
3.89387e-40
1.71848e-42
9.1387e-45
0.451553
0.119989
0.0218721
0.00293239
0.000485183
6.35421e-06
4.6026e-08
2.20465e-10
7.66816e-13
1.9795e-15
4.65158e-18
1.17811e-20
2.93296e-23
5.46178e-26
5.52701e-29
-3.41681e-32
3.99224e-38
3.47822e-49
2.19275e-36
7.35027e-35
1.82572e-36
5.76533e-39
3.43953e-38
4.02601e-34
3.44884e-36
2.19835e-38
1.13586e-40
0.451589
0.119718
0.0216415
0.00284152
0.000450063
4.98437e-06
2.64228e-08
7.67814e-11
1.84858e-13
2.34966e-15
3.40935e-17
2.5747e-19
1.16556e-21
7.70871e-23
1.08073e-24
5.74947e-27
1.23527e-33
5.19106e-45
3.55898e-32
1.87705e-30
4.90284e-32
2.02744e-34
8.5938e-36
1.68875e-31
1.86495e-33
1.46569e-35
9.43581e-38
0.451627
0.119412
0.0213759
0.00273551
0.000407724
3.44085e-06
9.28519e-09
6.24586e-12
2.01586e-15
3.48096e-18
1.28308e-21
2.71419e-21
1.62285e-23
1.24969e-14
3.788e-17
7.25602e-19
9.21053e-26
-7.63663e-40
2.02173e-27
6.96049e-26
1.09975e-27
4.3846e-30
7.6229e-33
6.43878e-29
8.46814e-31
8.02396e-33
5.79922e-35
0.45167
0.119136
0.0211332
0.00263799
0.000367264
2.15054e-06
1.24624e-09
1.37138e-13
2.41419e-15
1.25034e-08
8.75255e-12
-3.43056e-11
1.6653e-15
-1.34255e-20
8.54997e-18
1.49316e-17
-3.92296e-23
1.49792e-19
4.13022e-21
2.59285e-23
8.69302e-26
1.65919e-28
3.16605e-26
4.41795e-28
4.37344e-30
3.36475e-32
0.451688
0.118967
0.0209863
0.00257907
0.000341116
1.45384e-06
1.10405e-11
1.89479e-13
5.74256e-09
9.85729e-05
0.000373013
0.00791738
0.000807914
3.27487e-05
6.05606e-07
6.31055e-09
3.33474e-11
1.16072e-13
2.85034e-16
5.04136e-19
1.08746e-21
2.2285e-24
3.09982e-23
3.43406e-25
3.30599e-27
2.7994e-29
0.451688
0.118968
0.0209863
0.00257897
0.000337721
1.3272e-06
9.62064e-12
1.53136e-13
0.000847962
8.61771
342.733
6066.18
0.251234
0.00774739
0.000220932
4.07847e-06
4.6142e-08
3.37764e-10
1.66607e-12
5.54469e-15
1.2398e-17
2.41555e-20
2.81681e-21
3.19472e-23
3.10667e-25
2.61299e-27
0.451668
0.119133
0.0211317
0.00263749
0.000358275
1.74402e-06
9.09986e-11
2.5819e-13
1.23601e-06
0.000490637
1.30249e-05
-0.00128931
-0.000284855
-1.70318e-06
3.26998e-07
1.62544e-07
2.31782e-10
1.1125e-13
1.01765e-15
4.1578e-18
1.03696e-20
1.59748e-23
6.96909e-24
1.1099e-25
1.19833e-27
9.87965e-30
0.451628
0.11941
0.0213739
0.00273473
0.000396288
2.78248e-06
4.14551e-09
-3.2419e-14
4.90527e-18
1.31144e-24
-6.36825e-30
4.11799e-26
2.58138e-13
1.0161e-07
8.58395e-11
-1.4596e-11
-2.12926e-15
-1.54977e-20
3.61135e-17
2.93262e-16
-2.93572e-23
6.83026e-23
3.58867e-21
1.53392e-22
7.75638e-25
1.42721e-27
2.32104e-26
3.6173e-28
3.69676e-30
2.68595e-32
0.451587
0.119715
0.0216384
0.00284044
0.00043945
4.27136e-06
1.72031e-08
3.02814e-11
1.92384e-13
5.14057e-15
4.74597e-17
1.91894e-19
-4.2399e-21
7.25588e-16
6.77818e-18
1.99058e-19
7.07889e-25
-1.06891e-40
2.59426e-30
1.89385e-26
5.59049e-27
4.88965e-29
9.58847e-32
8.74438e-29
1.21732e-30
1.04839e-32
6.09489e-35
0.451554
0.119984
0.0218688
0.0029311
0.000476977
5.75707e-06
3.64636e-08
1.43381e-10
3.98443e-13
1.2165e-15
6.45646e-18
6.07004e-20
3.38136e-22
6.13212e-24
1.18365e-25
1.80941e-27
1.27382e-32
3.19114e-47
3.03839e-35
1.33874e-31
1.7879e-31
2.59103e-33
8.88009e-35
3.33293e-31
4.18576e-33
2.97225e-35
1.19735e-37
0.451522
0.120186
0.0220398
0.00299791
0.000504446
6.92356e-06
5.46457e-08
2.93299e-10
1.19761e-12
3.53336e-15
6.94245e-18
9.69249e-21
1.08382e-23
1.04435e-26
1.26569e-29
-1.54163e-33
2.11859e-37
8.09177e-52
6.36126e-41
3.25092e-37
3.34943e-36
8.76718e-38
5.51657e-37
1.13379e-33
1.30807e-35
7.74057e-38
2.31749e-40
0.451537
0.120343
0.0221622
0.00304336
0.000522718
7.71498e-06
6.80168e-08
4.16062e-10
1.96118e-12
7.41038e-15
2.16623e-17
4.43856e-20
5.5586e-23
3.6016e-26
1.26291e-29
-1.98324e-32
3.35469e-37
9.9948e-45
4.97277e-48
-1.10244e-52
-1.04062e-53
9.26977e-50
1.3408e-45
4.95089e-42
1.42811e-42
1.1374e-39
2.24031e-36
2.52522e-38
1.28921e-40
3.70522e-43
0.451449
0.120426
0.022237
0.00307139
0.000534005
8.20143e-06
7.64769e-08
4.97527e-10
2.47709e-12
9.80359e-15
3.12141e-17
7.93529e-20
1.57008e-22
2.29602e-25
2.25939e-28
1.39858e-31
1.15288e-34
5.98849e-36
4.00836e-38
1.07712e-40
1.82103e-43
2.18113e-46
1.82396e-49
6.7804e-49
2.77362e-48
1.70379e-44
1.29694e-39
2.81418e-41
3.76469e-43
4.37101e-45
0.451459
0.120474
0.0222834
0.00308875
0.000540606
8.47665e-06
8.12843e-08
5.44873e-10
2.78654e-12
1.12971e-14
3.6943e-17
9.78424e-20
2.10059e-22
3.67203e-25
5.33706e-28
6.70297e-31
7.39724e-34
7.77874e-37
9.22735e-40
1.22595e-42
1.69927e-45
2.18336e-48
2.501e-51
2.11864e-53
5.85135e-53
-2.21792e-49
8.59796e-43
2.05645e-44
3.0326e-46
4.18818e-48
0.451439
0.120526
0.0223176
0.0030997
0.000544686
8.63444e-06
8.39338e-08
5.70511e-10
2.9555e-12
1.21357e-14
4.03943e-17
1.10405e-19
2.50264e-22
4.76652e-25
7.8201e-28
1.15651e-30
1.63951e-33
2.22361e-36
7.426e-40
-6.59366e-41
-1.99121e-42
-5.53797e-44
-2.76775e-45
1.18754e-45
1.06743e-44
2.59318e-45
4.39689e-42
2.63936e-43
1.05981e-44
3.55592e-46
0.451424
0.120589
0.0223644
0.00311228
0.000546387
8.63087e-06
8.36722e-08
5.6724e-10
2.92446e-12
1.1957e-14
4.00956e-17
1.21383e-19
6.22746e-22
1.07221e-23
2.40637e-25
3.94178e-27
-7.73802e-30
-4.47686e-30
-2.69625e-31
-1.18066e-32
-4.46174e-34
-1.53474e-35
-4.91563e-37
4.77777e-38
4.32661e-38
3.14185e-39
1.17516e-38
4.10608e-40
1.18062e-41
3.02963e-43
0.451308
0.120717
0.0224453
0.00316515
0.000358196
3.37247e-05
2.71627e-06
1.90889e-07
1.18993e-08
6.66626e-10
3.39145e-11
1.58049e-12
6.79819e-14
2.72017e-15
1.02031e-16
3.61639e-18
1.21957e-19
3.9324e-21
1.21426e-22
3.58775e-24
1.013e-25
2.73148e-27
7.03385e-29
1.73136e-30
4.08021e-32
9.22022e-34
1.99537e-35
4.12594e-37
8.16938e-39
1.54679e-40
0.451293
0.120772
0.0224817
0.00317577
0.000359653
3.39214e-05
2.73701e-06
1.92732e-07
1.20363e-08
6.75348e-10
3.44073e-11
1.60596e-12
6.92156e-14
2.77406e-15
1.04105e-16
3.68136e-18
1.2334e-19
3.92971e-21
1.19309e-22
3.45408e-24
9.53487e-26
2.50994e-27
6.30352e-29
1.51201e-30
3.46664e-32
7.60659e-34
1.5988e-35
3.22222e-37
6.2384e-39
1.15938e-40
0.451284
0.120784
0.0224896
0.00317772
0.000359921
3.39408e-05
2.73801e-06
1.92793e-07
1.20401e-08
6.75604e-10
3.4434e-11
1.60819e-12
6.9389e-14
2.78539e-15
1.04706e-16
3.70646e-18
1.24178e-19
3.95178e-21
1.19736e-22
3.45885e-24
9.53248e-26
2.5077e-27
6.30184e-29
1.51429e-30
3.48328e-32
7.6762e-34
1.62251e-35
3.29064e-37
6.41467e-39
1.20278e-40
0.451272
0.120791
0.0224951
0.00317928
0.000360172
3.39662e-05
2.74006e-06
1.92959e-07
1.20536e-08
6.76626e-10
3.4503e-11
1.61299e-12
6.96675e-14
2.80022e-15
1.05386e-16
3.73497e-18
1.25217e-19
3.98589e-21
1.20768e-22
3.48834e-24
9.61518e-26
2.53095e-27
6.36709e-29
1.53228e-30
3.5304e-32
7.7977e-34
1.65187e-35
3.35893e-37
6.57189e-39
1.23741e-40
0.451633
0.123026
0.0237812
0.00356417
0.000437021
4.54421e-05
4.11084e-06
3.29743e-07
2.38028e-08
1.56481e-09
9.46046e-11
5.30301e-12
2.77534e-13
1.36424e-14
6.33157e-16
2.78673e-17
1.1673e-18
4.66596e-20
1.78293e-21
6.51908e-23
2.28208e-24
7.64872e-26
2.45449e-27
7.54112e-29
2.21836e-30
6.25043e-32
1.68704e-33
4.36459e-35
1.08405e-36
2.58197e-38
0.451624
0.123031
0.0237879
0.00356695
0.000437718
4.55647e-05
4.12709e-06
3.31483e-07
2.39611e-08
1.57746e-09
9.55091e-11
5.36207e-12
2.81095e-13
1.38438e-14
6.43961e-16
2.84215e-17
1.19463e-18
4.79499e-20
1.84094e-21
6.76607e-23
2.38145e-24
8.02569e-26
2.58957e-27
7.99823e-29
2.36448e-30
6.6923e-32
1.8141e-33
4.71117e-35
1.17412e-36
2.80498e-38
0.451601
0.123044
0.0238033
0.00357322
0.000439283
4.58375e-05
4.16317e-06
3.35397e-07
2.43257e-08
1.60741e-09
9.77079e-11
5.50837e-12
2.90028e-13
1.43519e-14
6.71196e-16
2.98129e-17
1.26272e-18
5.11395e-20
1.98334e-21
7.36884e-23
2.623e-24
8.94085e-26
2.91786e-27
9.1121e-29
2.72257e-30
7.78115e-32
2.12831e-33
5.5729e-35
1.39919e-36
3.36469e-38
0.451558
0.123056
0.0238274
0.00358493
0.000442401
4.62573e-05
4.20831e-06
3.39601e-07
2.46749e-08
1.63341e-09
9.94539e-11
5.61382e-12
2.95804e-13
1.46429e-14
6.85113e-16
3.04689e-17
1.29422e-18
5.2676e-20
2.05705e-21
7.70613e-23
2.76778e-24
9.52339e-26
3.13765e-27
9.89071e-29
2.98082e-30
8.58322e-32
2.36185e-33
6.21449e-35
1.56653e-36
3.7817e-38
0.451515
0.123052
0.0238519
0.00360156
0.000806393
2.66263e-05
5.64373e-07
8.35468e-09
9.37799e-11
9.91068e-13
1.83982e-14
7.10186e-16
3.26438e-17
1.46355e-18
6.26199e-20
2.56186e-21
1.00482e-22
3.78586e-24
1.37057e-25
4.76756e-27
1.59248e-28
5.11292e-30
1.57757e-31
4.66761e-33
1.7578e-33
1.67447e-34
2.32876e-36
9.71963e-38
3.32697e-39
9.93615e-41
0.451458
0.123065
0.023878
0.00361368
0.000811906
2.70084e-05
5.76394e-07
8.5472e-09
9.30861e-11
7.77485e-13
5.14381e-15
2.76319e-17
1.22993e-19
4.62332e-22
1.49789e-24
4.28725e-27
1.13438e-29
3.59282e-32
3.49302e-34
8.30598e-36
2.143e-37
5.15006e-39
1.12511e-40
2.10973e-42
3.15007e-40
2.44127e-40
1.66617e-39
1.1595e-40
5.25902e-42
1.88623e-43
0.451413
0.123078
0.0238974
0.00362154
0.000815211
2.7277e-05
5.87079e-07
8.80132e-09
9.71651e-11
8.24514e-13
5.54581e-15
3.02272e-17
1.35819e-19
5.11506e-22
1.64898e-24
4.69027e-27
1.22242e-29
2.98722e-32
6.73579e-35
1.35766e-37
2.40783e-40
3.75118e-43
5.13504e-46
1.60499e-48
9.37456e-47
3.99224e-46
1.69046e-42
1.56551e-43
8.52664e-45
3.44275e-46
0.451359
0.123079
0.0239087
0.00362612
0.000817017
2.74296e-05
5.94052e-07
8.99839e-09
1.00913e-10
8.74245e-13
6.0166e-15
3.34659e-17
1.52097e-19
5.70544e-22
1.79703e-24
4.92115e-27
1.23761e-29
2.99545e-32
6.83336e-35
1.3911e-37
2.50263e-40
4.05776e-43
5.95952e-46
7.81924e-49
1.35053e-51
2.68745e-51
2.95168e-45
3.15263e-46
1.90303e-47
8.04055e-49
0.451295
0.123065
0.0239083
0.00362578
0.000816518
2.7401e-05
5.94898e-07
9.08744e-09
1.03692e-10
9.223e-13
6.54559e-15
3.73776e-17
1.71534e-19
6.26049e-22
1.78826e-24
4.03995e-27
2.47873e-30
8.51635e-35
1.61901e-37
4.0823e-40
3.48581e-44
3.00899e-45
1.43102e-44
2.17973e-47
1.74834e-50
-3.67946e-51
1.43964e-45
3.74258e-47
7.40848e-49
1.33877e-50
0.451211
0.123024
0.0238883
0.00361714
0.000812097
2.70462e-05
5.83538e-07
8.92017e-09
1.03252e-10
9.45262e-13
6.93141e-15
4.03106e-17
1.81539e-19
6.07426e-22
1.41445e-24
4.18641e-27
2.67348e-32
4.35005e-43
4.22203e-48
2.31966e-49
4.22871e-51
2.06882e-40
2.52882e-39
1.35154e-41
1.58008e-45
-1.09785e-46
1.35647e-40
1.15932e-42
8.80772e-45
6.72728e-47
0.45111
0.122945
0.0238401
0.00359592
0.000801487
2.61438e-05
5.50272e-07
8.25271e-09
9.57775e-11
9.07583e-13
7.04252e-15
4.41567e-17
2.20388e-19
8.52177e-22
2.34673e-24
3.70454e-27
1.45353e-31
2.43077e-41
5.46661e-36
1.60891e-34
2.93615e-36
7.73733e-39
1.86558e-40
2.15868e-36
1.19621e-38
3.73879e-41
7.68258e-44
0.451
0.122825
0.0237561
0.00355844
0.00078255
2.44772e-05
4.85885e-07
6.88761e-09
7.97693e-11
8.37068e-13
7.72571e-15
5.55845e-17
2.91979e-19
4.82194e-21
7.34796e-23
3.30397e-25
1.93179e-29
2.51037e-37
1.67784e-31
1.07831e-29
2.04286e-31
6.57792e-34
8.85905e-37
1.53489e-33
1.4834e-35
1.01293e-37
4.91146e-40
0.450895
0.122674
0.0236433
0.00350691
0.000755695
2.20525e-05
3.91351e-07
8.79311e-09
8.45472e-12
4.83019e-15
1.5762e-18
1.69804e-20
5.90065e-18
7.69619e-13
1.28697e-15
1.83787e-18
-2.15939e-23
-1.57531e-33
2.8656e-26
1.01629e-24
1.022e-26
2.84883e-29
3.76139e-32
7.57988e-31
1.00429e-32
8.80708e-35
5.88665e-37
0.450814
0.12253
0.0235304
0.00345438
0.0007273
1.94615e-05
2.92141e-07
4.67803e-09
2.62702e-11
1.69595e-07
1.19681e-09
-8.82512e-10
3.83753e-13
1.33318e-15
5.40178e-17
6.46738e-16
-1.42119e-21
5.64247e-18
1.07365e-19
4.76426e-22
1.03923e-24
1.2654e-27
4.01619e-28
5.32722e-30
4.9423e-32
3.64078e-34
0.450765
0.122437
0.0234582
0.0034208
0.000708139
1.77187e-05
2.3189e-07
2.56251e-09
1.05075e-05
0.00396038
0.0595122
2.36264
0.00539611
6.54574e-05
7.57396e-07
4.19635e-08
4.68634e-10
2.35716e-12
8.08384e-15
1.89653e-17
3.01543e-20
3.11703e-23
4.16049e-25
4.09127e-27
3.59094e-29
2.89261e-31
0.450768
0.122438
0.0234581
0.00342068
0.00070608
1.74182e-05
2.21466e-07
2.25336e-09
0.776019
1619.28
69092
1.65452e+06
69.599
1.31587
0.0305574
0.000479477
4.53628e-06
2.69438e-08
1.04275e-10
2.60706e-13
4.11065e-16
4.12307e-19
3.34791e-23
3.24752e-25
2.80147e-27
2.21091e-29
0.450812
0.122528
0.0235291
0.00345386
0.000721713
1.86018e-05
2.58083e-07
3.1591e-09
0.000714128
0.0195997
0.00428928
0.225296
0.00374832
-2.08889e-07
-3.55181e-08
5.20749e-08
2.04711e-10
2.79199e-13
3.40625e-15
1.88418e-17
4.75504e-20
6.11252e-23
8.0271e-26
1.18493e-27
1.22811e-29
1.04935e-31
0.450894
0.122674
0.0236418
0.00350625
0.000748711
2.09276e-05
3.42597e-07
6.44268e-09
6.73083e-13
5.60735e-24
1.50961e-26
8.48094e-20
3.3601e-09
5.71764e-07
6.21441e-10
-3.80694e-10
8.4172e-13
5.8627e-16
6.15578e-17
3.89344e-16
-1.68547e-22
2.70576e-22
3.81634e-20
7.53896e-22
2.95977e-24
4.4044e-27
2.60956e-28
4.22343e-30
4.52968e-32
3.83318e-34
0.450996
0.122822
0.0237541
0.00355764
0.000776422
2.34974e-05
4.4371e-07
5.98837e-09
6.52632e-11
6.7288e-13
4.91805e-15
1.68675e-17
5.03536e-18
5.60708e-14
4.23713e-16
1.03017e-18
8.4824e-23
3.21313e-36
4.82673e-29
2.75005e-25
2.50158e-26
1.46738e-28
2.3456e-31
9.29301e-31
1.36595e-32
1.38513e-34
1.06701e-36
0.451108
0.122943
0.023838
0.0035951
0.000797121
2.54694e-05
5.22168e-07
7.63781e-09
8.83598e-11
8.69586e-13
7.30736e-15
5.12217e-17
2.89967e-19
1.54126e-21
1.43792e-23
8.36576e-26
1.50804e-29
5.80783e-40
3.22632e-34
1.61901e-30
6.31536e-31
5.92067e-33
1.1155e-35
2.93088e-33
3.80191e-35
3.14212e-37
1.98935e-39
0.451223
0.123023
0.023886
0.00361638
0.000809294
2.66417e-05
5.68144e-07
8.61164e-09
9.96999e-11
9.22701e-13
6.86532e-15
4.03528e-17
1.83203e-19
6.20334e-22
1.45566e-24
3.94691e-27
1.91545e-32
1.20736e-44
2.08237e-39
6.31175e-36
1.0383e-35
1.61819e-37
2.51324e-39
6.42755e-36
7.36846e-38
4.99366e-40
2.51392e-42
0.451291
0.123069
0.0239083
0.00362512
0.000814786
2.71819e-05
5.87669e-07
8.97311e-09
1.02939e-10
9.26108e-13
6.65835e-15
3.82624e-17
1.7331e-19
6.00325e-22
1.51579e-24
5.05603e-27
1.95714e-31
6.0195e-39
3.30981e-45
1.27355e-45
-9.71919e-53
7.25611e-48
9.7951e-44
4.1084e-41
2.32877e-42
3.66709e-42
8.39799e-39
1.10271e-40
8.39698e-43
5.13256e-45
0.451341
0.123073
0.0239077
0.00362561
0.000815922
2.73175e-05
5.91277e-07
8.97733e-09
1.01287e-10
8.85579e-13
6.15935e-15
3.45171e-17
1.56808e-19
5.78507e-22
1.74302e-24
4.39939e-27
1.00909e-29
2.40949e-32
5.93509e-35
1.271e-37
2.20221e-40
3.01005e-43
3.09993e-46
3.92624e-48
5.79027e-48
2.98874e-47
8.91865e-43
3.417e-44
8.10435e-46
1.56057e-47
0.451411
0.123072
0.0238946
0.00362078
0.000814612
2.72261e-05
5.86539e-07
8.81677e-09
9.78023e-11
8.35292e-13
5.65531e-15
3.09535e-17
1.38966e-19
5.18599e-22
1.64178e-24
4.56494e-27
1.16873e-29
2.82758e-32
6.28822e-35
1.23379e-37
2.10654e-40
3.14091e-43
4.11865e-46
4.80369e-49
5.19617e-52
-2.6493e-52
6.16509e-46
6.38746e-47
1.96754e-47
3.07524e-48
0.451458
0.123064
0.0238769
0.00361314
0.000811586
2.70195e-05
5.77915e-07
8.59654e-09
9.39996e-11
7.88501e-13
5.23595e-15
2.8181e-17
1.25249e-19
4.6812e-22
1.50186e-24
4.24764e-27
1.09124e-29
2.60158e-32
5.72996e-35
1.14488e-37
2.07527e-40
3.77238e-43
9.47498e-47
-6.22982e-47
-2.97486e-48
1.26147e-48
-3.73802e-43
1.87825e-43
5.68844e-44
6.01445e-45
0.451514
0.123051
0.0238509
0.00360102
0.000806645
2.66574e-05
5.64745e-07
8.30776e-09
8.96515e-11
7.41175e-13
4.85266e-15
2.58416e-17
1.16346e-19
5.34435e-22
5.63462e-24
1.6197e-25
5.60302e-27
1.90577e-28
6.23369e-30
1.95283e-31
5.83649e-33
1.66222e-34
4.49664e-36
1.15468e-37
2.80748e-39
6.31057e-41
-4.06165e-38
2.49433e-39
2.73875e-40
1.51214e-41
0.451556
0.123054
0.0238263
0.00358444
0.000442257
4.62291e-05
4.20372e-06
3.39e-07
2.46068e-08
1.62672e-09
9.88666e-11
5.56854e-12
2.92646e-13
1.44408e-14
6.73195e-16
2.98168e-17
1.26089e-18
5.10773e-20
1.9847e-21
7.39514e-23
2.641e-24
9.03366e-26
2.96021e-27
9.29536e-29
2.79928e-30
8.08649e-32
2.24211e-33
5.9679e-35
1.52685e-36
3.74903e-38
0.4516
0.123042
0.023802
0.0035727
0.000439137
4.58077e-05
4.15846e-06
3.34778e-07
2.42574e-08
1.60079e-09
9.71428e-11
5.46557e-12
2.8706e-13
1.41637e-14
6.60149e-16
2.92114e-17
1.23223e-18
4.96875e-20
1.91813e-21
7.09368e-23
2.51324e-24
8.52889e-26
2.7735e-27
8.64386e-29
2.58301e-30
7.40521e-32
2.03756e-33
5.38269e-35
1.36693e-36
3.33169e-38
0.451622
0.12303
0.023787
0.00356649
0.000437585
4.55368e-05
4.12255e-06
3.30885e-07
2.38951e-08
1.57111e-09
9.49818e-11
5.32139e-12
2.78323e-13
1.36691e-14
6.33901e-16
2.78807e-17
1.16746e-18
4.66737e-20
1.78469e-21
6.53317e-23
2.29041e-24
7.69308e-26
2.47599e-27
7.63908e-29
2.26061e-30
6.41773e-32
1.74905e-33
4.57655e-35
1.15136e-36
2.78205e-38
0.451632
0.123024
0.0237803
0.00356372
0.000436884
4.54135e-05
4.10625e-06
3.29147e-07
2.37372e-08
1.55855e-09
9.40785e-11
5.26381e-12
2.74845e-13
1.34754e-14
6.2351e-16
2.73524e-17
1.14169e-18
4.54658e-20
1.73078e-21
6.30487e-23
2.19963e-24
7.35107e-26
2.35461e-27
7.23079e-29
2.12961e-30
6.02022e-32
1.63356e-33
4.25702e-35
1.06689e-36
2.56885e-38
0.451079
0.122193
0.02335
0.00343946
0.000412438
4.17749e-05
3.67038e-06
2.85372e-07
1.99429e-08
1.2684e-09
7.41761e-11
4.02297e-12
2.03832e-13
9.70897e-15
4.37134e-16
1.86888e-17
7.61538e-19
2.96591e-20
1.10613e-21
3.95469e-23
1.35643e-24
4.4641e-26
1.40992e-27
4.27396e-29
1.24373e-30
3.47547e-32
9.32773e-34
2.40595e-35
5.97232e-37
1.4263e-38
0.451082
0.122196
0.0233519
0.00344026
0.000412654
4.18155e-05
3.67621e-06
2.86044e-07
2.00073e-08
1.27376e-09
7.45721e-11
4.04937e-12
2.05455e-13
9.80233e-15
4.42229e-16
1.89552e-17
7.74896e-19
3.02983e-20
1.13513e-21
4.07892e-23
1.40641e-24
4.65367e-26
1.47788e-27
4.50371e-29
1.3172e-30
3.69836e-32
9.97059e-34
2.58225e-35
6.43389e-37
1.54181e-38
0.451085
0.122202
0.0233558
0.0034419
0.000413092
4.1899e-05
3.68823e-06
2.87427e-07
2.01414e-08
1.28504e-09
7.5415e-11
4.10625e-12
2.08979e-13
1.00062e-14
4.5342e-16
1.95426e-17
8.04465e-19
3.17196e-20
1.19988e-21
4.35704e-23
1.51877e-24
5.08152e-26
1.63185e-27
5.02731e-29
1.48586e-30
4.21324e-32
1.14666e-33
2.99617e-35
7.52753e-37
1.81801e-38
0.451093
0.12221
0.0233612
0.00344409
0.000413769
4.19369e-05
3.68941e-06
2.87532e-07
2.01619e-08
1.2878e-09
7.56883e-11
4.12771e-12
2.10431e-13
1.00958e-14
4.58715e-16
1.98517e-17
8.22224e-19
3.26957e-20
1.24987e-21
4.59258e-23
1.62112e-24
5.49365e-26
1.78666e-27
5.57226e-29
1.66569e-30
4.77113e-32
1.31006e-33
3.44985e-35
8.72483e-37
2.1198e-38
0.451107
0.122221
0.0233663
0.00344727
0.000753715
2.3805e-05
4.76582e-07
6.6327e-09
7.04023e-11
7.25452e-13
1.38923e-14
5.38619e-16
2.42166e-17
1.05883e-18
4.42314e-20
1.76981e-21
6.80074e-23
2.51469e-24
8.95247e-26
3.06784e-27
1.01215e-28
3.21332e-30
9.82537e-32
1.49934e-32
2.39964e-33
1.24176e-34
1.47368e-36
5.98648e-38
2.02416e-39
6.01898e-41
0.451113
0.122227
0.0233697
0.00344904
0.000755031
2.39419e-05
4.81808e-07
6.71671e-09
6.90171e-11
5.47174e-13
3.46393e-15
1.79792e-17
7.81912e-20
2.90602e-22
9.41865e-25
2.72513e-27
7.35956e-30
2.42495e-32
2.46705e-34
5.97742e-36
1.57968e-37
3.98414e-39
9.40359e-41
1.35414e-39
2.60072e-39
3.60422e-40
1.24955e-39
8.36495e-41
3.7286e-42
1.3263e-43
0.45112
0.122226
0.0233692
0.00344945
0.000755749
2.40484e-05
4.87086e-07
6.8588e-09
7.14769e-11
5.76965e-13
3.72823e-15
1.97585e-17
8.75483e-20
3.30261e-22
1.08322e-24
3.17439e-27
8.58625e-30
2.19542e-32
5.26746e-35
1.1575e-37
2.30698e-40
4.1776e-43
6.88022e-46
3.59827e-46
4.26023e-45
1.29656e-45
1.47861e-42
1.34128e-43
7.31684e-45
2.99003e-46
0.451123
0.122216
0.0233608
0.00344701
0.000755368
2.40915e-05
4.90917e-07
6.99191e-09
7.42126e-11
6.14361e-13
4.09112e-15
2.23626e-17
1.01778e-19
3.90815e-22
1.28949e-24
3.78229e-27
1.04508e-29
2.87086e-32
7.73224e-35
1.93141e-37
4.36504e-40
8.91191e-43
1.64019e-45
2.70321e-48
3.00193e-50
1.30932e-50
2.73548e-45
2.98317e-46
1.86398e-47
8.27703e-49
0.451121
0.12219
0.0233395
0.00343965
0.00075308
2.40147e-05
4.9144e-07
7.08562e-09
7.701e-11
6.60999e-13
4.60458e-15
2.63885e-17
1.25185e-19
4.92516e-22
1.61158e-24
4.4732e-27
3.98388e-30
1.59315e-34
3.20954e-37
7.58214e-40
7.47119e-44
8.22235e-48
2.47662e-48
3.48731e-51
5.01562e-54
-3.49761e-54
7.62284e-48
7.70567e-49
4.99436e-50
2.26507e-51
0.451117
0.122138
0.0232987
0.0034245
0.000747611
2.37164e-05
4.85004e-07
7.06508e-09
7.90472e-11
7.14041e-13
5.31857e-15
3.27292e-17
1.65573e-19
6.78719e-22
2.16014e-24
9.31374e-27
1.2252e-31
2.72389e-42
1.78174e-48
9.72583e-49
3.60546e-54
2.11438e-43
4.77215e-43
5.37796e-46
2.77138e-50
-2.69083e-49
1.50634e-43
1.90588e-45
2.06452e-47
2.14835e-49
0.451111
0.122053
0.0232301
0.00339811
0.000737268
2.30512e-05
4.65496e-07
6.78197e-09
7.81809e-11
7.5684e-13
6.21427e-15
4.29783e-17
2.4717e-19
1.14828e-21
3.9254e-24
7.37895e-27
2.82319e-31
2.99183e-44
1.38852e-38
6.63655e-38
2.45729e-40
1.85839e-43
1.66437e-43
6.29395e-40
2.9951e-42
1.48453e-44
6.28264e-47
0.4511
0.121933
0.0231304
0.00335835
0.000720688
2.18615e-05
4.2479e-07
5.9787e-09
6.8724e-11
7.23884e-13
6.81056e-15
4.74805e-17
2.20161e-19
7.17928e-22
1.95573e-24
3.85939e-27
2.06197e-31
6.3763e-39
3.21502e-33
1.44296e-32
7.28404e-35
8.46802e-38
5.48784e-41
4.68366e-38
3.73265e-40
1.77559e-42
1.08232e-44
0.451101
0.121788
0.023009
0.00330809
0.000698413
2.01078e-05
3.56943e-07
8.04927e-09
7.42388e-12
3.73683e-15
1.00117e-18
5.1471e-21
1.20788e-20
1.44251e-15
1.80252e-18
6.52444e-22
-8.84759e-27
-5.85672e-36
4.89647e-26
2.47795e-27
8.41663e-30
1.08795e-32
7.78515e-36
4.20469e-35
5.77667e-37
5.19505e-39
3.92521e-41
0.451096
0.121654
0.0228938
0.00325924
0.00067552
1.81792e-05
2.77004e-07
4.221e-09
2.77278e-14
1.2856e-09
2.87539e-12
-2.75411e-12
-8.32456e-18
2.03042e-18
9.44421e-18
1.37475e-18
-1.59393e-23
3.22093e-20
1.57298e-22
3.5308e-25
4.37681e-28
3.31666e-31
3.44714e-32
4.52662e-34
4.46834e-36
4.28699e-38
0.451095
0.121571
0.0228228
0.00322899
0.000660408
1.68702e-05
2.27602e-07
2.44192e-09
1.29275e-08
9.0269e-05
0.000221974
0.00656837
6.41408e-06
8.42407e-08
1.10617e-09
7.35142e-11
6.45954e-13
2.32429e-15
5.31483e-18
8.26388e-21
8.65345e-24
6.1432e-27
7.09737e-29
7.75833e-31
7.83213e-33
7.43943e-35
0.451096
0.121571
0.0228221
0.00322881
0.000658801
1.66321e-05
2.18754e-07
2.18966e-09
0.000983018
7.01222
391.109
7031.21
0.19961
0.00312902
6.56653e-05
8.64396e-07
6.29298e-09
2.65092e-11
6.84417e-14
1.10864e-16
1.21505e-19
9.25454e-23
6.94213e-27
7.52854e-29
7.51268e-31
7.02956e-33
0.451097
0.121652
0.0228921
0.00325868
0.000671164
1.75044e-05
2.47858e-07
2.90511e-09
9.23481e-07
0.000311276
1.48653e-05
0.000594331
-9.83904e-07
1.5227e-09
6.91139e-11
7.91172e-11
4.6923e-13
7.97778e-16
3.94566e-18
1.15934e-20
1.89433e-23
1.84936e-26
1.42956e-29
2.53477e-31
3.28291e-33
3.58513e-35
0.451096
0.121784
0.0230066
0.00330721
0.000692932
1.92434e-05
3.16886e-07
5.73715e-09
4.96812e-13
6.67689e-23
1.84191e-29
5.24344e-24
3.63971e-12
6.26648e-10
3.93265e-13
-1.00675e-12
-4.28471e-16
6.95452e-19
6.19052e-20
5.63573e-20
-1.50342e-25
1.36048e-21
1.01308e-22
6.7138e-25
1.55151e-27
1.74647e-30
3.90848e-32
8.37745e-34
1.21602e-35
1.41018e-37
0.451103
0.121929
0.0231278
0.00335736
0.000715807
2.11307e-05
3.9432e-07
5.26823e-09
5.46756e-11
5.42306e-13
3.37775e-15
7.17724e-18
3.94237e-20
9.17875e-17
5.57765e-19
9.48307e-22
1.14132e-25
-1.06945e-34
6.02837e-30
1.01858e-27
2.19729e-29
7.05822e-32
8.53978e-35
1.11206e-34
2.35877e-36
3.38255e-38
3.61089e-40
0.451112
0.122051
0.0232274
0.00339712
0.000733664
2.25451e-05
4.46881e-07
6.42376e-09
7.44856e-11
7.503e-13
6.6891e-15
5.13658e-17
3.24856e-19
1.64862e-21
6.25602e-24
1.33463e-26
6.42508e-31
6.02057e-42
6.6145e-37
2.90895e-33
3.09503e-34
1.5707e-36
2.0081e-39
2.24073e-37
4.1886e-39
5.27593e-41
4.13142e-43
0.451131
0.122142
0.0232966
0.00342361
0.000745158
2.33976e-05
4.74776e-07
6.91059e-09
7.82998e-11
7.28905e-13
5.65729e-15
3.63542e-17
1.91606e-19
8.10751e-22
2.56286e-24
9.36036e-27
4.17964e-32
1.61853e-47
8.0853e-43
2.94807e-39
1.79456e-39
1.44799e-41
3.19999e-43
3.69405e-40
3.32165e-42
2.42221e-44
1.46339e-46
0.451108
0.122188
0.023338
0.00343872
0.000751512
2.38182e-05
4.86083e-07
7.02731e-09
7.7252e-11
6.76823e-13
4.84507e-15
2.85669e-17
1.38731e-19
5.5119e-22
1.76037e-24
8.31447e-27
5.95004e-31
2.71332e-38
7.01671e-45
1.09912e-45
-1.54777e-53
7.69461e-49
5.87848e-47
3.6072e-45
1.23081e-46
3.48142e-46
1.22769e-41
2.19172e-43
2.56603e-45
2.6917e-47
0.451124
0.122205
0.0233582
0.00344629
0.000754238
2.39719e-05
4.88077e-07
6.97328e-09
7.46362e-11
6.2626e-13
4.24084e-15
2.35744e-17
1.08647e-19
4.18579e-22
1.36449e-24
3.89076e-27
1.03573e-29
2.87125e-32
8.28611e-35
2.01982e-37
3.72615e-40
5.10103e-43
5.24948e-46
4.1194e-49
3.61126e-52
2.32208e-51
1.15396e-45
6.41167e-47
2.43516e-48
8.59464e-50
0.45112
0.122224
0.0233661
0.00344839
0.000754921
2.39706e-05
4.85464e-07
6.85305e-09
7.18184e-11
5.84513e-13
3.81315e-15
2.03972e-17
9.09657e-20
3.43607e-22
1.12186e-24
3.26508e-27
8.85979e-30
2.3261e-32
5.82556e-35
1.34368e-37
2.80792e-40
5.2979e-43
9.01289e-46
1.3835e-48
1.92588e-51
-1.21172e-51
2.23353e-44
4.09283e-45
3.65522e-46
2.27224e-47
0.451115
0.122225
0.0233679
0.00344827
0.00075446
2.38887e-05
4.80916e-07
6.71603e-09
6.9244e-11
5.51624e-13
3.51142e-15
1.83117e-17
7.98883e-20
2.97075e-22
9.61682e-25
2.77611e-27
7.33584e-30
1.80807e-32
4.14793e-35
8.74361e-38
1.7094e-40
3.69412e-43
1.57135e-45
-3.39265e-49
-8.62691e-49
-5.12979e-48
4.60068e-41
5.66824e-42
3.69479e-43
1.82588e-44
0.451107
0.12222
0.0233644
0.00344646
0.000753318
2.37687e-05
4.75361e-07
6.57771e-09
6.69885e-11
5.2565e-13
3.2896e-15
1.69042e-17
7.44234e-20
3.46836e-22
3.91683e-24
1.13655e-25
3.89726e-27
1.31167e-28
4.26164e-30
1.32784e-31
3.97238e-33
1.13638e-34
3.11321e-36
8.17242e-38
2.03362e-39
4.79667e-41
1.80447e-37
1.22448e-38
5.3884e-40
1.97565e-41
0.451094
0.122208
0.0233592
0.0034433
0.000413563
4.18994e-05
3.6839e-06
2.86871e-07
2.00928e-08
1.28151e-09
7.51756e-11
4.0904e-12
2.07981e-13
9.94795e-15
4.50496e-16
1.94238e-17
8.01417e-19
3.17421e-20
1.20866e-21
4.42298e-23
1.5551e-24
5.24976e-26
1.70234e-27
5.30301e-29
1.58818e-30
4.575e-32
1.26805e-33
3.38219e-35
8.68929e-37
2.14923e-38
0.451086
0.1222
0.0233539
0.00344108
0.000412878
4.18591e-05
3.68234e-06
2.86722e-07
2.0069e-08
1.27854e-09
7.4898e-11
4.0696e-12
2.06581e-13
9.86332e-15
4.45509e-16
1.91363e-17
7.84915e-19
3.08353e-20
1.16211e-21
4.20496e-23
1.461e-24
4.87485e-26
1.56268e-27
4.81375e-29