/*--------------------------------*- C++ -*----------------------------------*\
  =========                 |
  \\      /  F ield         | OpenFOAM: The Open Source CFD Toolbox
   \\    /   O peration     | Website:  https://openfoam.org
    \\  /    A nd           | Version:  10
     \\/     M anipulation  |
\*---------------------------------------------------------------------------*/
FoamFile
{
    format      ascii;
    class       volScalarField;
    location    "2.5";
    object      T;
}
// * * * * * * * * * * * * * * * * * * * * * * * * * * * * * * * * * * * * * //

dimensions      [0 0 0 1 0 0 0];

internalField   nonuniform List<scalar> 
96305
(
0.393547
0.0893923
0.0140079
0.00166037
0.000157547
1.24395e-05
8.40246e-07
4.95671e-08
2.59537e-09
1.22223e-10
5.2337e-12
2.05671e-13
7.47709e-15
2.53267e-16
8.04409e-18
2.40907e-19
6.83474e-21
1.84357e-22
4.73946e-24
1.16292e-25
2.72582e-27
6.10502e-29
1.30678e-30
2.67339e-32
5.22798e-34
9.78385e-36
1.75199e-37
3.00189e-39
4.92971e-41
7.74262e-43
0.393556
0.0893861
0.0140041
0.00165951
0.000157434
1.243e-05
8.39619e-07
4.95255e-08
2.59264e-09
1.22054e-10
5.22393e-12
2.0515e-13
7.45183e-15
2.5217e-16
8.00208e-18
2.3951e-19
6.79478e-21
1.83384e-22
4.71969e-24
1.1598e-25
2.72314e-27
6.11004e-29
1.31028e-30
2.68581e-32
5.2631e-34
9.86837e-36
1.77041e-37
3.03713e-39
4.99065e-41
7.83689e-43
0.393562
0.0893768
0.013999
0.00165842
0.000157309
1.24224e-05
8.39302e-07
4.95115e-08
2.59205e-09
1.22031e-10
5.22203e-12
2.04964e-13
7.43798e-15
2.51391e-16
7.9681e-18
2.38364e-19
6.76625e-21
1.82961e-22
4.72275e-24
1.16458e-25
2.74389e-27
6.17524e-29
1.32742e-30
2.72503e-32
5.3407e-34
9.99831e-36
1.78975e-37
3.06117e-39
5.01012e-41
7.82252e-43
0.393573
0.0893362
0.0139765
0.00165296
0.000156675
1.23534e-05
8.33417e-07
4.908e-08
2.56537e-09
1.2061e-10
5.15467e-12
2.0203e-13
7.31914e-15
2.46988e-16
7.82477e-18
2.34569e-19
6.70047e-21
1.8324e-22
4.80598e-24
1.20856e-25
2.91126e-27
6.7126e-29
1.4813e-30
3.12849e-32
6.31846e-34
1.22044e-35
2.2483e-37
3.93178e-39
6.55078e-41
1.03822e-42
0.393659
0.0892336
0.0139223
0.00162413
0.000241503
2.67986e-06
1.79571e-08
8.81188e-11
5.76501e-13
1.29264e-14
4.55292e-16
1.54426e-17
4.81857e-19
1.38067e-20
3.62089e-22
8.58204e-24
1.77106e-25
2.87103e-27
2.015e-29
-9.87133e-31
-6.33515e-32
-2.48508e-33
1.19348e-33
7.87031e-35
2.45353e-36
5.94411e-38
3.98488e-40
1.04272e-41
2.27057e-43
4.33158e-45
0.39367
0.089185
0.0138934
0.00161773
0.000240457
2.71107e-06
1.86542e-08
8.98895e-11
3.30033e-13
9.62077e-16
2.2837e-18
4.48318e-21
7.37463e-24
1.03197e-26
1.18755e-29
7.00705e-26
-7.32052e-26
-4.99033e-27
-1.21152e-28
-5.39638e-31
-1.04047e-33
-1.1111e-36
4.07778e-40
4.41962e-40
2.92545e-41
1.03086e-42
5.00404e-43
2.04562e-44
5.63654e-46
1.23479e-47
0.393684
0.0891523
0.0138721
0.00161174
0.000238903
2.67932e-06
1.83119e-08
8.74774e-11
3.18971e-13
9.23169e-16
2.16438e-18
4.14867e-21
6.53707e-24
8.54958e-27
-1.82042e-27
8.37408e-22
-1.05466e-21
-1.07091e-22
-3.75381e-24
-2.32942e-26
-7.70226e-29
-1.65605e-31
-1.91808e-34
-9.21404e-38
-1.96839e-41
-4.18632e-45
2.2755e-42
1.05325e-43
2.94262e-45
6.53735e-47
0.393696
0.089106
0.0138408
0.00160248
0.00023628
2.6118e-06
1.75015e-08
8.18927e-11
2.93031e-13
8.32953e-16
1.90839e-18
3.52496e-21
5.21539e-24
6.12322e-27
-6.69222e-24
4.39538e-18
-7.23596e-18
-1.01415e-18
-4.15942e-20
-2.97997e-22
-1.2162e-24
-3.37341e-27
-6.28912e-30
-7.3359e-33
-5.94779e-36
-3.56877e-39
-1.1968e-38
-1.0574e-40
-3.21497e-43
1.33578e-44
0.393712
0.0890331
0.0137917
0.00158737
0.00023179
2.48978e-06
1.6031e-08
7.18664e-11
2.47463e-13
6.82069e-16
1.51157e-18
2.60095e-21
3.22889e-24
2.41219e-27
-1.17764e-20
1.02607e-14
-2.24205e-15
-2.48958e-17
-6.44369e-19
-7.7725e-22
-7.44208e-26
-5.00554e-28
-4.21437e-31
-1.83523e-33
-5.51127e-36
-8.0791e-39
-1.32524e-40
-1.13594e-42
-5.46115e-45
5.75311e-47
0.393723
0.0889223
0.0137158
0.00156338
0.000224419
2.28439e-06
1.35912e-08
5.57205e-11
1.76867e-13
4.38386e-16
7.59215e-19
8.00206e-22
4.65031e-25
-6.82503e-26
-6.56609e-18
5.31084e-13
-4.78984e-12
-1.2958e-19
-9.58272e-25
-3.39184e-29
-2.3805e-34
3.21892e-37
-3.00316e-40
-1.23514e-39
-6.49199e-41
-1.77898e-43
-1.64859e-43
-1.29122e-45
1.74235e-48
2.626e-49
0.393736
0.0887619
0.0136047
0.00152769
0.000213134
1.96809e-06
1.0011e-08
3.36966e-11
8.24129e-14
1.49288e-16
2.44505e-19
4.23095e-22
7.1227e-25
2.91297e-23
3.78946e-16
7.0591e-10
-2.55887e-09
1.63799e-55
2.3067e-46
-1.89011e-49
-7.42766e-49
-6.79643e-49
-1.09975e-50
7.41354e-48
3.653e-49
1.13706e-50
1.64953e-51
0.393753
0.0885506
0.0134569
0.00147936
0.000197393
1.53842e-06
5.72049e-09
1.16891e-11
1.96773e-14
1.60918e-16
1.61549e-18
8.56416e-21
2.72211e-23
-3.84884e-24
7.77339e-18
1.82222e-12
1.07469e-11
-2.73864e-65
1.04758e-52
1.31236e-50
1.5951e-52
2.53863e-55
3.63846e-52
2.55202e-47
1.58479e-48
5.25966e-50
1.58643e-51
0.393769
0.0883113
0.0132865
0.00142297
0.000178441
1.05654e-06
1.99488e-09
9.47024e-13
1.08024e-16
6.32511e-20
-6.38913e-23
7.5217e-23
1.28919e-25
3.2831e-28
-5.39046e-20
3.00423e-15
3.14863e-14
-9.33362e-61
9.61435e-48
8.0495e-46
5.9345e-48
7.65028e-51
3.86575e-54
4.72329e-49
8.664e-51
1.90038e-52
5.68057e-54
0.393791
0.0880945
0.0131306
0.00137109
0.000160364
6.56088e-07
2.64597e-10
1.12451e-14
-7.5577e-38
-1.95546e-25
-8.11487e-22
2.1895e-18
3.81762e-18
1.21023e-30
1.16034e-37
6.31967e-39
-1.56862e-44
4.1132e-40
1.10611e-41
4.66688e-44
6.83426e-47
4.60675e-50
9.58981e-47
1.2083e-48
1.00742e-50
7.52697e-53
0.393797
0.0879624
0.0130363
0.00133979
0.000148702
4.41287e-07
2.08995e-12
1.91123e-14
-2.33265e-34
-1.02973e-25
-1.46492e-22
2.97486e-21
2.10647e-20
9.48435e-23
1.96667e-25
2.35484e-28
1.78973e-31
1.01392e-34
4.34211e-38
1.38227e-41
6.97037e-45
1.31653e-47
2.84486e-45
5.41133e-47
6.05646e-49
5.87269e-51
0.393797
0.0879632
0.0130363
0.00133973
0.000147177
4.02408e-07
1.80191e-12
1.53536e-14
-6.79534e-36
-4.34479e-30
-1.23727e-27
2.67969e-27
1.72401e-26
1.06252e-28
3.53974e-31
7.00196e-34
8.96294e-37
8.33077e-40
1.15812e-42
1.45701e-45
9.53969e-49
5.88404e-52
6.08122e-48
1.27152e-49
1.47709e-51
1.49832e-53
0.393789
0.0880923
0.0131297
0.00137083
0.00015633
5.30651e-07
1.89697e-11
2.62653e-14
-3.34864e-41
-2.00882e-34
4.84728e-37
1.22431e-35
-8.24244e-34
-2.24631e-34
-4.27999e-37
6.86832e-39
8.50386e-43
1.48181e-46
1.24168e-46
2.20028e-48
5.21298e-51
4.37412e-54
5.25223e-50
9.4488e-52
9.74971e-54
8.81409e-56
0.39377
0.0883096
0.0132851
0.00142255
0.000173304
8.52076e-07
8.85882e-10
-9.04156e-15
1.76006e-19
1.9434e-26
-2.80434e-31
2.46682e-32
4.14427e-39
8.8307e-33
2.85625e-33
-2.85736e-38
3.26493e-46
3.85084e-52
-1.29918e-50
9.84208e-50
-1.07199e-56
-3.90771e-52
8.23986e-50
1.20909e-51
2.25491e-54
1.39789e-57
3.00524e-52
4.88817e-54
4.88934e-56
4.50119e-58
0.393751
0.0885477
0.0134549
0.00147879
0.000192618
1.31586e-06
3.71433e-09
4.60339e-12
1.90429e-14
3.48566e-16
2.2445e-18
6.33919e-21
9.50632e-24
9.79662e-27
7.23526e-30
-2.50776e-35
6.04066e-42
4.10482e-71
1.4617e-59
4.25471e-55
4.70144e-56
1.49558e-58
5.28948e-60
1.17651e-54
1.79999e-56
1.70608e-58
1.41948e-60
0.393737
0.0887579
0.0136026
0.00152701
0.000209433
1.78084e-06
7.91714e-09
2.18798e-11
4.27813e-14
9.04666e-17
3.18584e-19
2.03567e-21
7.95377e-24
1.55336e-26
1.32673e-29
-6.34146e-34
2.20537e-40
4.55547e-78
4.39277e-65
7.30691e-61
5.6042e-61
3.67766e-63
1.8625e-61
3.3186e-57
4.83122e-59
4.02248e-61
2.48798e-63
0.39372
0.0889155
0.0137122
0.00156255
0.000221756
2.14728e-06
1.19061e-08
4.48978e-11
1.28898e-13
2.67077e-16
3.67176e-19
3.56052e-22
2.72949e-25
1.74402e-28
8.9615e-32
-1.10607e-34
3.14175e-41
-3.57496e-76
-2.78997e-62
3.78976e-66
2.85144e-66
1.01626e-67
8.87875e-64
6.27738e-60
8.8381e-62
8.66089e-64
5.48374e-65
0.393743
0.089038
0.0137907
0.00158674
0.000229962
2.39659e-06
1.4851e-08
6.38205e-11
2.11413e-13
5.61523e-16
1.15314e-18
1.65613e-21
1.44579e-24
6.43483e-28
1.50561e-31
-1.9258e-34
1.16015e-39
7.8473e-48
3.18795e-51
-1.5453e-55
-9.19628e-57
-1.01727e-56
3.42966e-60
5.03857e-64
-2.55496e-67
-5.86208e-63
8.89647e-60
6.66955e-61
2.31675e-60
6.41913e-61
0.393669
0.0891033
0.0138388
0.00160168
0.000235035
2.55013e-06
1.67195e-08
7.64177e-11
2.67331e-13
7.4352e-16
1.66344e-18
2.96974e-21
4.12097e-24
4.21453e-27
2.88224e-30
1.22402e-33
6.91766e-37
2.50403e-38
1.1821e-40
2.23597e-43
2.66181e-46
2.24815e-49
1.32882e-52
5.2087e-56
1.2718e-59
-3.58308e-60
1.31853e-54
9.38778e-56
3.51959e-55
1.00982e-55
0.393685
0.0891419
0.0138687
0.00161094
0.000238003
2.6371e-06
1.77832e-08
8.37551e-11
3.0095e-13
8.5739e-16
1.97033e-18
3.6661e-21
5.52551e-24
6.77164e-27
6.88463e-30
6.02903e-33
4.61815e-36
3.35785e-39
2.7634e-42
2.56192e-45
2.47331e-48
2.22283e-51
1.76132e-54
-1.49522e-56
5.94695e-56
-5.17315e-55
1.91488e-49
1.19944e-50
6.35669e-51
4.65425e-52
0.393671
0.0891825
0.013891
0.00161686
0.000239846
2.68705e-06
1.83703e-08
8.77345e-11
3.19336e-13
9.21439e-16
2.15554e-18
4.14024e-21
6.59299e-24
8.81444e-27
1.01382e-29
1.0491e-32
1.03306e-35
8.06074e-39
-4.51248e-41
-1.31409e-42
-3.02968e-44
-6.80417e-46
-2.78748e-47
-3.09071e-49
6.6565e-47
1.36091e-47
2.72424e-44
1.38288e-45
4.68638e-47
1.32599e-48
0.39366
0.0892301
0.0139199
0.00162336
0.000240603
2.68566e-06
1.83088e-08
8.72034e-11
3.1585e-13
9.07616e-16
2.14776e-18
4.86005e-21
2.46248e-23
3.55895e-25
4.13469e-27
-5.95519e-29
-6.41691e-30
-2.92038e-31
-1.068e-32
-3.4049e-34
-9.94805e-36
-2.72433e-37
-7.06133e-39
3.90418e-40
3.83692e-40
2.34284e-41
8.6717e-41
2.56684e-42
6.2282e-44
1.34703e-45
0.393574
0.0893327
0.0139741
0.0016522
0.000156517
1.23308e-05
8.3086e-07
4.8844e-08
2.54703e-09
1.19377e-10
5.08181e-12
1.98203e-13
7.13684e-15
2.39125e-16
7.51289e-18
2.23117e-19
6.30619e-21
1.70466e-22
4.41379e-24
1.09378e-25
2.59074e-27
5.86153e-29
1.26679e-30
2.6176e-32
5.17984e-34
9.83111e-36
1.78739e-37
3.1057e-39
5.16856e-41
8.22731e-43
0.393563
0.0893737
0.0139966
0.00165763
0.000157147
1.23986e-05
8.36595e-07
4.92598e-08
2.57247e-09
1.20716e-10
5.14449e-12
2.00899e-13
7.24617e-15
2.43107e-16
7.6393e-18
2.26269e-19
6.35166e-21
1.69607e-22
4.31703e-24
1.04809e-25
2.42694e-27
5.36044e-29
1.12988e-30
2.27524e-32
4.38044e-34
8.07325e-36
1.42563e-37
2.41451e-39
3.92919e-41
6.13915e-43
0.393557
0.089383
0.0140019
0.00165875
0.000157277
1.24066e-05
8.36955e-07
4.9278e-08
2.57339e-09
1.20764e-10
5.14853e-12
2.01179e-13
7.26428e-15
2.44098e-16
7.68339e-18
2.27809e-19
6.39473e-21
1.70556e-22
4.33238e-24
1.04952e-25
2.4263e-27
5.35568e-29
1.1296e-30
2.27877e-32
4.4018e-34
8.148e-36
1.44699e-37
2.46626e-39
4.04125e-41
6.36967e-43
0.393548
0.0893892
0.0140055
0.0016596
0.000157388
1.24159e-05
8.37577e-07
4.93202e-08
2.57626e-09
1.20947e-10
5.15891e-12
2.01783e-13
7.29364e-15
2.45407e-16
7.73357e-18
2.29573e-19
6.44852e-21
1.72036e-22
4.36994e-24
1.05851e-25
2.44746e-27
5.40558e-29
1.14135e-30
2.30597e-32
4.46164e-34
8.27761e-36
1.47331e-37
2.51774e-39
4.14041e-41
6.55225e-43
0.393816
0.0910744
0.0148243
0.0018647
0.000191602
1.66832e-05
1.26336e-06
8.4819e-08
5.12473e-09
2.82015e-10
1.42744e-11
6.70013e-13
2.9369e-14
1.20942e-15
4.70353e-17
1.73518e-18
6.09381e-20
2.04276e-21
6.5478e-23
2.00884e-24
5.90196e-26
1.66062e-27
4.47471e-29
1.15469e-30
2.85362e-32
6.75643e-34
1.53279e-35
3.33395e-37
6.96357e-39
1.39513e-40
0.393808
0.0910795
0.0148288
0.00186621
0.000191916
1.67292e-05
1.26844e-06
8.52734e-08
5.15926e-09
2.8432e-10
1.44122e-11
6.77544e-13
2.9749e-14
1.22742e-15
4.78435e-17
1.76992e-18
6.23731e-20
2.09956e-21
6.76198e-23
2.08533e-24
6.1602e-26
1.74285e-27
4.72209e-29
1.225e-30
3.0424e-32
7.23609e-34
1.64871e-35
3.59976e-37
7.54439e-39
1.51609e-40
0.393792
0.0910903
0.0148389
0.0018696
0.000192618
1.68312e-05
1.27971e-06
8.62945e-08
5.23879e-09
2.89784e-10
1.47478e-11
6.96226e-13
3.07038e-14
1.2729e-15
4.98856e-17
1.85733e-18
6.59584e-20
2.24036e-21
7.28906e-23
2.27247e-24
6.78938e-26
1.94289e-27
5.32448e-29
1.39662e-30
3.50582e-32
8.4199e-34
1.93579e-35
4.26159e-37
8.99784e-39
1.82008e-40
0.393759
0.0911034
0.0148552
0.00187599
0.00019401
1.69924e-05
1.2947e-06
8.74915e-08
5.32325e-09
2.95097e-10
1.50484e-11
7.1154e-13
3.1413e-14
1.30318e-15
5.11114e-17
1.90593e-18
6.7898e-20
2.31825e-21
7.59586e-23
2.38801e-24
7.19908e-26
2.07952e-27
5.75283e-29
1.52298e-30
3.85562e-32
9.32838e-34
2.1573e-35
4.77173e-37
1.01142e-38
2.0536e-40
0.393728
0.0911061
0.0148725
0.00188524
0.000359317
8.49527e-06
1.27889e-07
1.34147e-09
1.08401e-11
9.40909e-14
1.85298e-15
6.76408e-17
2.64657e-18
9.9287e-20
3.54843e-21
1.21328e-22
3.93151e-24
1.21115e-25
3.6664e-27
1.07445e-28
3.00329e-30
8.0487e-32
2.07336e-33
5.12103e-35
1.89729e-35
1.52762e-36
1.76484e-38
6.22515e-40
1.79654e-41
4.51989e-43
0.393684
0.0911197
0.0148902
0.00189188
0.00036187
8.62113e-06
1.30668e-07
1.37034e-09
1.05333e-11
6.20373e-14
2.8934e-16
1.09582e-18
3.43996e-21
9.12415e-24
1.49983e-24
1.62496e-21
-1.11569e-21
-8.91039e-23
-1.7637e-24
-1.30509e-26
-5.48647e-29
-1.55723e-31
-3.19683e-34
-4.93098e-37
-5.97429e-40
9.52287e-43
2.72785e-41
1.24903e-42
4.07093e-44
1.10014e-45
0.39365
0.0911324
0.0149032
0.00189617
0.000363409
8.71001e-06
1.3316e-07
1.41205e-09
1.10042e-11
6.58562e-14
3.12312e-16
1.20023e-18
3.80355e-21
1.01077e-23
9.18637e-21
5.17993e-18
-1.48022e-17
-1.15798e-18
-1.92476e-20
-1.12278e-22
-3.96834e-25
-1.00132e-27
-1.84571e-30
-2.74821e-33
-3.44656e-36
-3.64073e-39
4.24263e-37
1.50602e-38
3.68372e-40
7.59537e-42
0.393609
0.0911369
0.0149111
0.00189873
0.000364269
8.76116e-06
1.34799e-07
1.44456e-09
1.14386e-11
6.99075e-14
3.39291e-16
1.33089e-18
4.2663e-21
1.20604e-23
2.26752e-17
-7.64039e-15
-8.28628e-14
-1.06067e-14
-1.6211e-16
-8.63186e-19
-3.35145e-21
-1.10286e-23
-2.78083e-26
-5.67538e-29
-9.02124e-32
-1.17798e-34
1.51378e-34
5.79615e-36
1.45765e-37
3.04766e-39
0.393558
0.0911296
0.0149117
0.00189868
0.000364083
8.75359e-06
1.35035e-07
1.45973e-09
1.17652e-11
7.38572e-14
3.69818e-16
1.48974e-18
4.82304e-21
6.58842e-22
2.32796e-14
-4.96733e-11
-3.4366e-11
-6.03528e-11
-3.70494e-13
-2.00329e-15
-1.13744e-19
-4.63979e-24
-3.26284e-27
-1.05211e-29
-4.06833e-32
-8.82041e-35
1.02482e-36
3.58803e-38
8.5691e-40
1.70446e-41
0.393491
0.0911027
0.0148999
0.00189425
0.000362119
8.64028e-06
1.32474e-07
1.43361e-09
1.1729e-11
7.58478e-14
3.92732e-16
1.6124e-18
5.12474e-21
1.89887e-19
1.21139e-11
6.50057e-08
-2.21917e-07
-4.99314e-16
-4.7623e-22
-4.93837e-24
2.57251e-30
1.12189e-32
-1.91199e-36
-1.97692e-37
-1.79076e-37
-1.22304e-39
2.75966e-39
8.79527e-41
2.11809e-42
4.0841e-44
0.39341
0.0910468
0.0148703
0.00188314
0.000357342
8.3493e-06
1.24891e-07
1.32677e-09
1.0896e-11
7.30324e-14
4.00568e-16
1.77382e-18
6.24955e-21
8.7782e-19
1.21543e-10
0.00729037
0.000457766
-8.97172e-46
1.07292e-41
-1.34258e-45
-1.49451e-46
-1.21579e-45
-4.75543e-46
1.46122e-42
6.98329e-44
2.11156e-45
4.45748e-47
0.393319
0.0909605
0.0148178
0.0018634
0.000348777
7.81036e-06
1.10172e-07
1.10702e-09
9.08531e-12
6.75193e-14
4.41161e-16
2.24342e-18
8.31015e-21
-8.68799e-20
4.43936e-13
3.25632e-05
4.99387e-06
-1.58209e-52
4.0184e-47
2.57288e-45
1.91779e-47
7.13733e-50
1.93582e-49
3.48918e-44
2.41965e-45
8.41762e-47
2.30725e-48
0.39323
0.0908495
0.0147467
0.00183611
0.000336598
7.02544e-06
8.85313e-08
1.42934e-09
7.2098e-13
2.20054e-16
7.26678e-20
5.79963e-22
4.11565e-25
1.01443e-21
-9.18363e-14
2.61365e-07
1.18673e-08
-1.00174e-48
1.93576e-40
4.04474e-40
1.35711e-42
1.24396e-45
5.59906e-49
3.75922e-46
7.91657e-48
2.01488e-49
6.08278e-51
0.39316
0.0907417
0.0146752
0.00180823
0.000323707
6.18659e-06
6.57752e-08
7.49356e-10
-1.1554e-28
-7.25285e-19
-1.64902e-15
3.24143e-11
1.44624e-12
-3.95428e-24
-3.85055e-29
-4.31654e-32
2.81967e-39
3.30481e-33
1.91841e-35
3.50555e-38
3.09641e-41
1.51466e-44
1.42743e-43
1.37862e-45
9.9139e-48
6.44641e-50
0.393117
0.0906719
0.0146293
0.00179042
0.000315012
5.62321e-06
5.19896e-08
4.05113e-10
-1.02984e-25
-4.21108e-19
-2.58532e-16
1.4394e-14
2.41906e-16
1.08131e-18
1.8387e-21
2.02591e-24
1.46558e-27
8.64437e-31
6.43035e-34
1.53711e-35
3.96322e-38
3.46632e-41
1.39432e-41
1.68868e-43
1.42444e-45
1.04445e-47
0.39312
0.090673
0.0146293
0.00179035
0.000314073
5.52633e-06
4.96146e-08
3.55306e-10
-1.4541e-28
-1.09622e-23
-3.14178e-21
5.15992e-20
1.19279e-21
6.94746e-24
3.18373e-26
8.97986e-29
1.55844e-31
1.95898e-34
3.18725e-37
3.76549e-40
2.09479e-42
7.1987e-45
3.47184e-44
4.66771e-46
4.20206e-48
3.20449e-50
0.393158
0.0907402
0.0146743
0.00180796
0.000321156
5.90854e-06
5.7976e-08
5.01858e-10
-2.29571e-33
-2.18341e-27
-8.05124e-30
3.59854e-28
-2.10358e-26
-5.16028e-30
2.74164e-33
-2.18904e-33
-7.89188e-36
4.30591e-38
1.13454e-39
4.50853e-42
6.86759e-45
5.12846e-48
1.0552e-46
1.59221e-48
1.51418e-50
1.16554e-52
0.39323
0.0908493
0.0147457
0.00183576
0.00033341
6.66142e-06
7.73612e-08
1.04131e-09
5.14725e-14
3.45016e-26
4.46195e-31
1.87893e-29
-1.13008e-40
2.88175e-32
1.69059e-31
7.07699e-34
-3.20869e-39
-6.00466e-40
-4.02322e-43
-7.91416e-43
3.14104e-49
1.19145e-43
9.07391e-44
6.26087e-46
1.0388e-48
7.26401e-52
3.15005e-49
4.89067e-51
4.7917e-53
3.73745e-55
0.393315
0.0909584
0.0148165
0.00186297
0.000345979
7.49335e-06
1.00532e-07
9.61323e-10
7.46418e-12
5.4881e-14
2.83298e-16
6.80346e-19
7.1197e-22
6.32435e-25
1.19857e-27
2.35333e-30
6.03575e-35
3.13693e-57
1.45229e-52
4.47099e-49
1.57858e-50
4.09776e-53
3.19461e-56
8.19538e-52
1.19235e-53
1.12449e-55
7.99654e-58
0.393408
0.0910454
0.0148689
0.00188271
0.000355344
8.13087e-06
1.18465e-07
1.22786e-09
1.0059e-11
7.00446e-14
4.15973e-16
2.05933e-18
8.23049e-21
2.58042e-23
5.79322e-26
7.26804e-29
2.00699e-33
-3.10316e-63
4.49799e-59
7.23701e-55
1.47226e-55
7.11586e-58
5.33859e-59
1.62028e-54
2.14997e-56
1.70787e-58
9.45339e-61
0.393503
0.0911015
0.0148984
0.00189385
0.00036083
8.50902e-06
1.2895e-07
1.38401e-09
1.13307e-11
7.41183e-14
3.8964e-16
1.61734e-18
5.18263e-21
1.23786e-23
2.04651e-26
3.91927e-29
9.5515e-35
-4.5075e-70
2.85516e-61
6.80153e-61
6.32021e-61
5.65819e-63
2.12132e-61
2.04628e-57
2.62507e-59
7.5314e-61
8.80234e-62
0.393555
0.0911326
0.0149117
0.00189833
0.000363283
8.68236e-06
1.33376e-07
1.44136e-09
1.16826e-11
7.4203e-14
3.76512e-16
1.52674e-18
4.87931e-21
1.19236e-23
2.1233e-26
5.02181e-29
1.00872e-33
1.01186e-41
4.83232e-48
1.37833e-48
-7.97802e-56
8.97722e-54
2.40055e-56
1.4213e-61
3.24989e-65
-1.16831e-62
-1.83932e-58
8.2427e-57
1.35026e-56
3.13647e-57
0.393592
0.0911324
0.0149105
0.00189846
0.000363762
8.72462e-06
1.3416e-07
1.4412e-09
1.14826e-11
7.08349e-14
3.47495e-16
1.37344e-18
4.40092e-21
1.1455e-23
2.4364e-26
4.34578e-29
7.05927e-32
1.1964e-34
2.09021e-37
3.17131e-40
3.89175e-43
3.76765e-46
2.74882e-49
1.44643e-52
5.39436e-56
1.47319e-59
-1.41916e-53
4.12841e-53
3.5188e-53
6.17463e-54
0.393649
0.0911281
0.0149014
0.00189576
0.000363133
8.69341e-06
1.33035e-07
1.41457e-09
1.10774e-11
6.67283e-14
3.18552e-16
1.22939e-18
3.89264e-21
1.02492e-23
2.29068e-26
4.50083e-29
8.15384e-32
1.39776e-34
2.20412e-37
3.06734e-40
3.71522e-43
3.93083e-46
3.65884e-49
3.03031e-52
2.26824e-55
7.10783e-56
-6.16707e-50
1.17711e-49
6.7485e-50
9.55593e-51
0.393685
0.0911193
0.0148895
0.0018916
0.000361724
8.62494e-06
1.31023e-07
1.37841e-09
1.06383e-11
6.29279e-14
2.94584e-16
1.11782e-18
3.50367e-21
9.23945e-24
2.09285e-26
4.18251e-29
7.6e-32
1.28281e-34
2.00102e-37
2.79533e-40
2.35335e-43
-3.28975e-45
-1.04583e-46
-2.81476e-48
-7.082e-50
8.59847e-51
-3.4013e-45
7.93429e-46
2.44954e-46
2.24886e-47
0.393726
0.0911052
0.0148718
0.00188496
0.000359437
8.506e-06
1.27966e-07
1.33118e-09
1.01378e-11
5.90958e-14
2.72778e-16
1.02589e-18
3.33239e-21
1.35643e-23
1.82058e-25
4.94281e-27
1.39744e-28
3.80504e-30
9.86314e-32
2.42129e-33
5.56612e-35
1.18217e-36
2.26065e-38
3.68478e-40
4.39005e-42
-7.42552e-45
-4.44122e-40
1.31807e-41
1.42509e-42
6.78166e-44
0.393758
0.0911024
0.0148546
0.00187573
0.000193947
1.69819e-05
1.29326e-06
8.73336e-08
5.30828e-09
2.93867e-10
1.49583e-11
7.05732e-13
3.10741e-14
1.28502e-15
5.02152e-17
1.86485e-18
6.61394e-20
2.24755e-21
7.32766e-23
2.29134e-24
6.86861e-26
1.97246e-27
5.42752e-29
1.43144e-30
3.62143e-32
8.79061e-34
2.04853e-35
4.58397e-37
9.86199e-39
2.0368e-40
0.393791
0.0910891
0.0148381
0.00186932
0.000192554
1.68202e-05
1.27824e-06
8.61338e-08
5.22395e-09
2.88582e-10
1.46619e-11
6.90783e-13
3.03879e-14
1.25612e-15
4.90605e-17
1.81969e-18
6.43593e-20
2.1765e-21
7.04853e-23
2.18733e-24
6.50441e-26
1.85313e-27
5.06042e-29
1.3247e-30
3.32578e-32
8.01256e-34
1.85319e-35
4.11618e-37
8.79087e-39
1.80242e-40
0.393807
0.0910786
0.0148282
0.00186597
0.000191857
1.67189e-05
1.26704e-06
8.51181e-08
5.14493e-09
2.83169e-10
1.43321e-11
6.72371e-13
2.94539e-14
1.21184e-15
4.70923e-17
1.73608e-18
6.09484e-20
2.04345e-21
6.55457e-23
2.01329e-24
5.92393e-26
1.6704e-27
4.51439e-29
1.16985e-30
2.90845e-32
6.93864e-34
1.5895e-35
3.49682e-37
7.3983e-39
1.50378e-40
0.393814
0.0910735
0.0148238
0.00186446
0.000191541
1.66726e-05
1.26194e-06
8.46645e-08
5.1105e-09
2.80879e-10
1.41944e-11
6.6503e-13
2.90828e-14
1.19454e-15
4.63151e-17
1.70297e-18
5.9595e-20
1.99028e-21
6.35555e-23
1.9426e-24
5.68805e-26
1.59581e-27
4.29215e-29
1.10707e-30
2.73925e-32
6.50724e-34
1.48416e-35
3.2518e-37
6.85361e-39
1.38815e-40
0.393405
0.0904667
0.0145531
0.00179854
0.000180668
1.53183e-05
1.12627e-06
7.32711e-08
4.28465e-09
2.28055e-10
1.1163e-11
5.06861e-13
2.15052e-14
8.57997e-16
3.23658e-17
1.15968e-18
3.96148e-20
1.29378e-21
4.04734e-23
1.21411e-24
3.49503e-26
9.65629e-28
2.561e-29
6.5208e-31
1.59428e-32
3.74393e-34
8.44655e-36
1.83185e-37
3.82435e-39
7.68335e-41
0.393407
0.0904687
0.0145542
0.00179896
0.000180763
1.53333e-05
1.12807e-06
7.3445e-08
4.29859e-09
2.29025e-10
1.12229e-11
5.10204e-13
2.16771e-14
8.6628e-16
3.27444e-17
1.17626e-18
4.03118e-20
1.32175e-21
4.15379e-23
1.25237e-24
3.62421e-26
1.00677e-27
2.68487e-29
6.87252e-31
1.68878e-32
3.98486e-34
9.03066e-36
1.96654e-37
4.1209e-39
8.30759e-41
0.393409
0.0904728
0.0145566
0.00179981
0.000180955
1.53642e-05
1.13179e-06
7.38029e-08
4.3276e-09
2.31068e-10
1.13507e-11
5.17416e-13
2.20512e-14
8.84399e-16
3.35774e-17
1.21291e-18
4.18641e-20
1.38456e-21
4.39403e-23
1.33886e-24
3.91695e-26
1.10018e-27
2.96674e-29
7.67666e-31
1.90622e-32
4.54236e-34
1.03916e-35
2.28304e-37
4.824e-39
9.80106e-41
0.393415
0.0904783
0.0145598
0.00180094
0.000181243
1.53817e-05
1.13292e-06
7.39124e-08
4.3386e-09
2.31998e-10
1.14168e-11
5.21416e-13
2.22659e-14
8.95031e-16
3.40747e-17
1.24768e-18
4.83279e-20
1.78195e-21
5.74126e-23
1.72091e-24
4.95006e-26
1.37222e-27
3.6642e-29
9.41288e-31
2.3239e-32
5.51046e-34
1.25508e-35
2.74637e-37
5.78039e-39
1.17039e-40
0.393425
0.0904852
0.0145625
0.00180246
0.000335313
7.57496e-06
1.07594e-07
1.06038e-09
8.11637e-12
6.96571e-14
1.41559e-15
5.11474e-17
1.95007e-18
7.12621e-20
2.42152e-21
-1.14248e-19
-1.10878e-20
-2.24049e-22
-2.76051e-24
-2.53575e-26
-1.52446e-28
-5.67364e-31
-3.4788e-34
1.99723e-34
2.7677e-35
1.18419e-36
1.16348e-38
3.94474e-40
1.11321e-41
2.76422e-43
0.393429
0.0904884
0.0145644
0.00180336
0.000335899
7.61926e-06
1.08777e-07
1.07166e-09
7.76781e-12
4.34085e-14
1.93661e-16
7.08485e-19
2.17252e-21
5.64378e-24
-1.26231e-18
-2.13563e-15
-6.39876e-17
3.35687e-18
5.39147e-20
2.46963e-22
1.45508e-25
-3.41674e-27
-1.91312e-29
-5.86716e-32
-1.34336e-34
-2.49246e-37
3.35069e-36
6.43627e-38
1.18297e-39
2.07596e-41
0.393434
0.0904873
0.0145639
0.00180355
0.000336218
7.65363e-06
1.09985e-07
1.0946e-09
8.04759e-12
4.57937e-14
2.08556e-16
7.79081e-19
2.43397e-21
-3.75282e-22
-1.04133e-14
-1.49845e-11
1.5938e-12
1.0922e-13
1.43296e-15
8.79992e-18
3.39408e-20
8.77133e-23
1.32718e-25
6.54494e-29
-3.22384e-31
-1.29633e-33
8.00219e-32
1.45408e-33
2.54224e-35
4.26175e-37
0.393434
0.0904787
0.0145583
0.00180222
0.000336038
7.66735e-06
1.10859e-07
1.11606e-09
8.35855e-12
4.87879e-14
2.29017e-16
8.82478e-19
2.83186e-21
-1.13687e-18
-3.53609e-11
-3.28951e-08
1.49106e-08
6.15036e-10
7.60745e-12
5.00683e-14
2.33618e-16
8.39136e-19
2.36203e-21
5.41675e-24
1.01318e-26
1.50466e-29
3.20163e-29
5.76798e-31
1.00067e-32
1.66608e-34
0.39343
0.0904576
0.0145445
0.00179826
0.000334986
7.64193e-06
1.10967e-07
1.13108e-09
8.67617e-12
5.25234e-14
2.57999e-16
1.04257e-18
3.4708e-21
-1.40245e-15
-4.9787e-08
-3.36112e-06
-1.65866e-05
7.09449e-07
4.08999e-09
2.17466e-11
7.67029e-16
2.31737e-20
1.30304e-23
7.84297e-26
4.67081e-28
1.55907e-30
1.74788e-31
2.78678e-33
4.65742e-35
7.65674e-37
0.393424
0.0904169
0.0145182
0.00179014
0.000332481
7.54422e-06
1.09471e-07
1.12753e-09
8.90696e-12
5.67784e-14
2.98402e-16
1.29554e-18
-5.4342e-21
-8.29451e-13
-3.53001e-05
-0.130428
-0.0498379
-3.30953e-11
-3.34041e-18
-2.3855e-20
-1.18154e-26
-7.41288e-29
1.08888e-32
6.21121e-34
1.03415e-33
1.18003e-35
2.32595e-34
4.91754e-36
9.53797e-38
1.69058e-39
0.393413
0.0903505
0.0144741
0.00177602
0.000327749
7.32701e-06
1.04968e-07
1.08148e-09
8.80825e-12
6.02457e-14
3.49497e-16
1.70767e-18
-2.09607e-19
-4.05659e-12
0.000404128
3428.41
18.1846
-1.13859e-41
-7.97509e-38
9.58691e-42
5.09791e-42
1.19047e-41
6.22452e-42
1.52407e-37
4.65432e-39
1.15623e-40
2.3598e-42
0.393396
0.0902563
0.0144099
0.00175475
0.000320167
6.9392e-06
9.56043e-08
9.51664e-10
7.74512e-12
5.78933e-14
3.86731e-16
1.90895e-18
5.65268e-21
-1.07433e-14
4.63674e-06
36.7704
0.339569
1.49011e-47
2.98021e-41
6.98634e-41
2.4274e-42
3.14084e-44
4.0165e-46
3.81424e-41
2.74528e-42
9.97986e-44
2.63522e-45
0.393388
0.0901429
0.0143317
0.00172785
0.000309982
6.36855e-06
8.005e-08
1.29397e-09
6.27684e-13
1.70094e-16
4.85682e-20
1.77879e-22
3.40576e-24
-2.07126e-14
-1.88625e-06
0.724896
0.00332541
-3.32591e-44
1.17347e-33
2.52227e-35
3.35689e-38
1.81816e-41
5.84693e-45
1.52327e-43
4.45188e-45
1.36396e-46
4.29837e-48
0.393375
0.0900369
0.0142573
0.00170168
0.000299516
5.74193e-06
6.17678e-08
6.69065e-10
-4.6933e-23
-5.92321e-14
-1.22951e-08
0.000185273
6.88758e-06
-7.96752e-18
4.52918e-22
1.307e-24
5.07271e-31
1.53036e-27
2.51295e-30
2.17896e-33
1.15264e-36
4.02785e-40
1.06829e-40
6.33954e-43
3.65137e-45
2.1165e-47
0.393369
0.0899721
0.0142115
0.0016855
0.000292614
5.31779e-06
5.05299e-08
3.82558e-10
-5.99597e-19
-1.49044e-12
-1.90757e-09
3.82545e-07
8.3249e-09
1.64706e-11
2.90084e-14
3.07361e-17
2.15473e-20
1.32944e-23
2.13474e-26
2.08036e-29
1.21071e-32
4.67994e-36
2.30939e-38
1.53926e-40
9.65375e-43
5.78764e-45
0.39337
0.0899722
0.0142111
0.00168541
0.000291875
5.24086e-06
4.85274e-08
3.42301e-10
-1.16344e-22
-5.19515e-17
-2.69103e-14
5.72529e-12
1.9575e-13
5.73785e-16
1.3611e-18
2.62522e-21
3.48595e-24
4.07808e-27
4.91734e-30
8.3011e-33
1.05212e-35
6.70908e-39
5.70863e-41
4.24801e-43
2.91201e-45
1.85962e-47
0.393376
0.0900357
0.0142562
0.00170138
0.000297511
5.52331e-06
5.51347e-08
4.56932e-10
-1.11992e-26
-5.08673e-22
-7.92665e-23
4.26271e-20
-1.00017e-19
-8.71345e-24
1.00002e-26
-2.41916e-26
-8.57394e-29
2.48492e-31
6.51619e-34
1.07293e-36
1.02506e-39
5.85404e-43
6.33289e-44
7.4228e-46
6.31086e-48
4.4877e-50
0.393384
0.0901399
0.0143301
0.00172738
0.000307458
6.08789e-06
7.08915e-08
9.17339e-10
3.75356e-14
1.94668e-24
2.87527e-31
1.94948e-29
-1.3723e-33
-2.14721e-28
-7.37043e-32
-2.81554e-30
-2.20374e-33
1.14786e-33
1.18938e-33
3.90531e-35
2.06403e-41
5.78171e-37
1.34574e-38
4.20629e-41
5.11533e-44
3.16753e-47
9.90382e-47
1.38318e-48
1.30983e-50
9.80329e-53
0.393399
0.0902534
0.0144082
0.00175422
0.000317915
6.7016e-06
8.86231e-08
8.3693e-10
6.19607e-12
4.39407e-14
1.93235e-16
2.86668e-19
1.28217e-22
7.76178e-26
3.69803e-28
1.10264e-30
1.94006e-35
3.86171e-51
9.45895e-46
5.37949e-44
5.99942e-46
1.07163e-48
7.43056e-52
1.60244e-49
2.24966e-51
2.12541e-53
1.46633e-55
0.393413
0.0903487
0.0144723
0.00177549
0.000326079
7.16196e-06
1.00685e-07
1.02352e-09
8.39017e-12
5.97802e-14
3.77144e-16
2.05013e-18
9.17495e-21
3.29972e-23
8.83955e-26
1.32202e-28
3.67803e-33
-2.27524e-57
7.06205e-54
4.94968e-50
3.10691e-51
9.5158e-54
7.2881e-57
1.76998e-52
2.26672e-54
1.91926e-56
9.62602e-59
0.393435
0.0904197
0.0145168
0.00178966
0.000331338
7.43988e-06
1.07105e-07
1.10231e-09
8.8202e-12
5.79692e-14
3.17613e-16
1.44065e-18
5.35919e-21
1.60044e-23
3.56849e-26
9.23296e-29
2.07323e-34
-3.87628e-65
4.02579e-61
1.05932e-56
4.53146e-57
2.78429e-59
2.12198e-61
8.91185e-56
7.64657e-57
1.17732e-57
1.09425e-58
0.393418
0.0904562
0.0145436
0.00179776
0.000334251
7.57732e-06
1.0972e-07
1.1214e-09
8.7015e-12
5.37789e-14
2.71523e-16
1.12906e-18
3.86697e-21
1.08354e-23
2.44062e-26
8.18622e-29
3.05594e-33
4.64832e-41
1.02999e-47
1.19364e-48
-9.52292e-57
1.04962e-54
3.13997e-57
3.81119e-59
1.7285e-62
-1.57186e-60
6.73082e-53
1.69502e-53
1.95413e-54
1.3222e-55
0.393436
0.0904701
0.0145566
0.00180183
0.000335506
7.62785e-06
1.10191e-07
1.11283e-09
8.40475e-12
4.97279e-14
2.37394e-16
9.30323e-19
3.02302e-21
8.21345e-24
1.88887e-26
3.80277e-29
7.17035e-32
1.4152e-34
2.9073e-37
5.03575e-40
6.59158e-43
6.3973e-46
4.66432e-49
2.5925e-52
1.14381e-55
-2.01167e-57
8.76304e-50
1.7677e-50
1.67531e-51
1.01383e-52
0.393434
0.0904856
0.0145619
0.00180298
0.000335828
7.62783e-06
1.09601e-07
1.0935e-09
8.08485e-12
4.63872e-14
2.13284e-16
8.04168e-19
2.5285e-21
6.73631e-24
1.55208e-26
3.1903e-29
6.12119e-32
1.13799e-34
2.02047e-37
3.30649e-40
4.90566e-43
6.57551e-46
7.95171e-49
8.68133e-52
8.59714e-55
-5.19864e-54
1.13921e-46
1.79986e-47
1.36676e-48
7.19373e-50
0.393431
0.0904871
0.0145632
0.00180295
0.000335627
7.60149e-06
1.08562e-07
1.07141e-09
7.79239e-12
4.37562e-14
1.9629e-16
7.21466e-19
2.21914e-21
5.8209e-24
1.32999e-26
2.71203e-29
5.06715e-32
8.83964e-35
1.43611e-37
2.12471e-40
2.27892e-43
-1.58416e-45
-5.55016e-47
-1.51377e-48
-3.88423e-50
-2.68682e-50
2.79381e-43
2.97617e-44
1.64875e-45
6.89391e-47
0.393426
0.0904839
0.0145613
0.00180203
0.000335118
7.56282e-06
1.07293e-07
1.04911e-09
7.5362e-12
4.16799e-14
1.83838e-16
6.67175e-19
2.12603e-21
8.97234e-24
1.27697e-25
3.43923e-27
9.67352e-29
2.62344e-30
6.8215e-32
1.68656e-33
3.96474e-35
8.74645e-37
1.79498e-38
3.3977e-40
5.50583e-42
6.84239e-44
1.30523e-39
7.70429e-41
2.87739e-42
8.91304e-44
0.393416
0.0904766
0.0145585
0.00180052
0.000181152
1.53676e-05
1.13118e-06
7.37385e-08
4.32343e-09
2.30844e-10
1.13382e-11
5.16632e-13
2.20032e-14
8.81764e-16
3.34646e-17
1.20955e-18
4.18471e-20
1.39018e-21
4.4409e-23
1.36368e-24
4.02426e-26
1.1405e-27
3.10554e-29
8.1255e-31
2.04443e-32