/*--------------------------------*- C++ -*----------------------------------*\
  =========                 |
  \\      /  F ield         | OpenFOAM: The Open Source CFD Toolbox
   \\    /   O peration     | Website:  https://openfoam.org
    \\  /    A nd           | Version:  10
     \\/     M anipulation  |
\*---------------------------------------------------------------------------*/
FoamFile
{
    format      ascii;
    class       volScalarField;
    location    "2.5";
    object      T;
}
// * * * * * * * * * * * * * * * * * * * * * * * * * * * * * * * * * * * * * //

dimensions      [0 0 0 1 0 0 0];

internalField   nonuniform List<scalar> 
96305
(
0.393547
0.0893923
0.0140079
0.00166037
0.000157547
1.24395e-05
8.40246e-07
4.95671e-08
2.59537e-09
1.22223e-10
5.2337e-12
2.05671e-13
7.47709e-15
2.53267e-16
8.04409e-18
2.40907e-19
6.83474e-21
1.84357e-22
4.73946e-24
1.16292e-25
2.72582e-27
6.10502e-29
1.30678e-30
2.67339e-32
5.22798e-34
9.78385e-36
1.75199e-37
3.00189e-39
4.92971e-41
7.74262e-43
0.393556
0.0893861
0.0140041
0.00165951
0.000157434
1.243e-05
8.39619e-07
4.95255e-08
2.59264e-09
1.22054e-10
5.22393e-12
2.0515e-13
7.45183e-15
2.5217e-16
8.00208e-18
2.3951e-19
6.79478e-21
1.83384e-22
4.71969e-24
1.1598e-25
2.72314e-27
6.11004e-29
1.31028e-30
2.68581e-32
5.2631e-34
9.86837e-36
1.77041e-37
3.03713e-39
4.99065e-41
7.83689e-43
0.393562
0.0893768
0.013999
0.00165842
0.000157309
1.24224e-05
8.39302e-07
4.95115e-08
2.59205e-09
1.22031e-10
5.22203e-12
2.04964e-13
7.43798e-15
2.51391e-16
7.9681e-18
2.38364e-19
6.76625e-21
1.82961e-22
4.72275e-24
1.16458e-25
2.74389e-27
6.17524e-29
1.32742e-30
2.72503e-32
5.3407e-34
9.99831e-36
1.78975e-37
3.06117e-39
5.01012e-41
7.82252e-43
0.393573
0.0893362
0.0139765
0.00165296
0.000156675
1.23534e-05
8.33417e-07
4.908e-08
2.56537e-09
1.2061e-10
5.15467e-12
2.0203e-13
7.31914e-15
2.46988e-16
7.82477e-18
2.34569e-19
6.70047e-21
1.8324e-22
4.80598e-24
1.20856e-25
2.91126e-27
6.7126e-29
1.4813e-30
3.12849e-32
6.31846e-34
1.22044e-35
2.2483e-37
3.93178e-39
6.55078e-41
1.03822e-42
0.393659
0.0892336
0.0139223
0.00162413
0.000241503
2.67986e-06
1.79571e-08
8.81188e-11
5.76501e-13
1.29264e-14
4.55292e-16
1.54426e-17
4.81857e-19
1.38067e-20
3.62089e-22
8.58204e-24
1.77108e-25
2.87114e-27
2.01526e-29
-9.87108e-31
-6.3351e-32
-2.48507e-33
1.19348e-33
7.87031e-35
2.45353e-36
5.94411e-38
3.98488e-40
1.04272e-41
2.27057e-43
4.33158e-45
0.39367
0.089185
0.0138934
0.00161773
0.000240457
2.71107e-06
1.86542e-08
8.98895e-11
3.30033e-13
9.62077e-16
2.2837e-18
4.48318e-21
7.37463e-24
1.03197e-26
1.20404e-29
-1.20269e-32
-9.46218e-34
-3.14258e-35
-9.39386e-37
-2.60527e-38
-6.83014e-40
-1.69988e-41
1.33285e-39
4.42914e-40
2.92557e-41
1.03086e-42
5.00209e-43
2.04502e-44
5.63484e-46
1.23439e-47
0.393684
0.0891523
0.0138721
0.00161174
0.000238903
2.67932e-06
1.83119e-08
8.74774e-11
3.18971e-13
9.23169e-16
2.16438e-18
4.14867e-21
6.53707e-24
8.54958e-27
9.51452e-30
9.50068e-33
8.99779e-36
7.9222e-39
6.18581e-42
4.34898e-45
1.66734e-48
4.4902e-50
8.14441e-47
9.65958e-46
1.96231e-46
1.30248e-47
6.33702e-46
3.26602e-47
1.0248e-48
2.36836e-50
0.393696
0.089106
0.0138408
0.00160248
0.00023628
2.6118e-06
1.75015e-08
8.18927e-11
2.93031e-13
8.32953e-16
1.90839e-18
3.52496e-21
5.21539e-24
6.12333e-27
5.63622e-30
3.93198e-33
2.3352e-36
2.28918e-39
4.10394e-42
7.35175e-45
2.85356e-47
5.01698e-50
5.49616e-53
8.4347e-55
3.20943e-53
1.66959e-53
6.73795e-49
4.18136e-50
1.48031e-51
3.62255e-53
0.393712
0.0890331
0.0137917
0.00158737
0.00023179
2.48978e-06
1.6031e-08
7.18664e-11
2.47463e-13
6.82069e-16
1.51157e-18
2.60095e-21
3.22889e-24
2.55143e-27
1.04278e-30
2.97089e-34
-4.84498e-38
-7.75989e-41
-1.04115e-43
-1.11485e-46
-1.13078e-49
-3.20301e-54
4.88658e-57
2.50349e-58
1.28944e-58
4.1353e-59
1.03097e-51
6.57264e-53
2.33301e-54
5.3789e-56
0.393723
0.0889223
0.0137158
0.00156338
0.000224419
2.28439e-06
1.35912e-08
5.57205e-11
1.76867e-13
4.38386e-16
7.59215e-19
8.00206e-22
4.65031e-25
1.6037e-28
5.63931e-32
-9.24026e-35
1.67113e-41
1.73821e-49
4.30789e-53
-1.9967e-58
-7.37547e-62
8.0198e-63
2.49617e-66
8.73558e-65
1.07326e-63
-6.66777e-62
1.54853e-54
9.15343e-56
3.06607e-57
5.77632e-59
0.393736
0.0887619
0.0136047
0.00152769
0.000213134
1.96809e-06
1.0011e-08
3.36966e-11
8.24129e-14
1.49288e-16
2.44505e-19
4.23095e-22
7.1227e-25
9.11283e-28
6.39233e-31
-3.36173e-34
9.06232e-41
-6.62405e-82
3.79265e-72
6.37221e-75
5.40748e-71
5.52609e-67
7.39501e-63
9.84555e-60
1.4713e-60
3.1865e-61
5.90736e-64
0.393753
0.0885506
0.0134569
0.00147936
0.000197393
1.53842e-06
5.72049e-09
1.16891e-11
1.96773e-14
1.60918e-16
1.61549e-18
8.56416e-21
2.72211e-23
5.33312e-26
4.8402e-29
-5.22215e-34
1.89e-40
-2.03997e-91
1.55115e-81
-3.36289e-79
-3.44926e-75
-3.19316e-71
-2.6968e-67
2.51667e-64
3.24411e-65
3.35338e-66
3.95682e-67
0.393769
0.0883113
0.0132865
0.00142297
0.000178441
1.05654e-06
1.99488e-09
9.47024e-13
1.08024e-16
6.32511e-20
-6.38913e-23
7.5217e-23
1.28919e-25
7.78921e-29
1.8554e-31
-1.23339e-36
2.33947e-42
-3.25862e-92
7.54039e-79
4.62653e-78
-1.79256e-80
-2.93488e-75
-3.20223e-70
1.10116e-63
1.04525e-64
5.75764e-66
2.4648e-67
0.393791
0.0880945
0.0131306
0.00137109
0.000160364
6.56088e-07
2.64597e-10
1.12451e-14
-1.20751e-38
4.1331e-37
4.07327e-35
-1.43535e-39
2.59463e-46
1.63878e-58
-6.37127e-67
9.34709e-67
-2.14167e-72
1.42526e-69
3.99829e-72
1.30681e-75
2.50519e-79
-3.94311e-72
1.98141e-64
1.90013e-65
1.02182e-66
4.51847e-68
0.393797
0.0879624
0.0130363
0.00133979
0.000148702
4.41287e-07
2.08995e-12
1.91123e-14
9.53538e-55
7.47774e-42
3.6755e-39
5.79135e-43
3.66168e-46
4.50468e-49
3.63061e-52
1.95059e-55
7.17322e-59
2.05574e-62
4.63326e-66
8.01438e-70
1.06111e-73
-8.06599e-75
1.68728e-67
3.12265e-68
2.64231e-69
2.28549e-70
0.393797
0.0879632
0.0130363
0.00133973
0.000147177
4.02408e-07
1.80191e-12
1.53536e-14
3.84622e-55
2.66036e-44
1.64707e-41
9.63836e-45
5.47502e-48
7.32507e-51
6.34241e-54
4.00894e-57
2.00772e-60
8.15607e-64
2.7225e-67
7.32718e-71
1.55069e-74
-1.21012e-74
1.13954e-67
1.98621e-68
1.46469e-69
1.29822e-70
0.393789
0.0880923
0.0131297
0.00137083
0.00015633
5.30651e-07
1.89697e-11
2.62653e-14
7.85235e-55
2.84915e-40
3.8525e-37
3.92561e-41
9.12505e-47
5.54116e-52
-9.34275e-56
1.17783e-57
1.05702e-61
4.03299e-66
4.10066e-69
1.56902e-72
3.41973e-76
-4.89593e-72
1.66163e-64
1.55e-65
7.51106e-67
3.53891e-68
0.39377
0.0883096
0.0132851
0.00142255
0.000173304
8.52076e-07
8.85882e-10
-9.04156e-15
1.76006e-19
1.9434e-26
-2.80434e-31
2.46682e-32
4.14427e-39
8.83071e-33
2.85625e-33
-2.85735e-38
3.85807e-46
3.65002e-62
-2.80105e-70
3.83098e-69
-6.36374e-76
1.31896e-75
1.2092e-75
4.6724e-78
-9.65805e-80
-2.99337e-71
1.61607e-63
1.95971e-64
1.30679e-65
8.0661e-67
0.393751
0.0885477
0.0134549
0.00147879
0.000192618
1.31586e-06
3.71433e-09
4.60339e-12
1.90429e-14
3.48566e-16
2.2445e-18
6.33919e-21
9.50632e-24
9.79662e-27
7.23526e-30
-2.50776e-35
6.04066e-42
1.33701e-90
-5.81426e-75
7.34142e-82
1.3069e-78
6.3047e-74
4.39122e-69
7.0638e-64
1.26874e-64
1.14299e-65
8.2689e-67
0.393737
0.0887579
0.0136026
0.00152701
0.000209433
1.78084e-06
7.91714e-09
2.18798e-11
4.27813e-14
9.04666e-17
3.18584e-19
2.03567e-21
7.95377e-24
1.55336e-26
1.32673e-29
-6.34146e-34
2.20537e-40
2.58307e-83
-8.62324e-69
1.19764e-75
5.80213e-78
1.20407e-73
2.89575e-69
1.11414e-64
2.77199e-65
2.95896e-66
2.60462e-67
0.39372
0.0889155
0.0137122
0.00156255
0.000221756
2.14728e-06
1.19061e-08
4.48978e-11
1.28898e-13
2.67077e-16
3.67176e-19
3.56052e-22
2.72949e-25
1.74402e-28
8.9615e-32
-1.10607e-34
3.14175e-41
-3.57496e-76
-2.78997e-62
3.37619e-66
-7.17984e-73
-3.75497e-72
-4.69368e-68
6.72469e-65
4.39724e-64
2.33436e-64
5.18311e-65
0.393743
0.089038
0.0137907
0.00158674
0.000229962
2.39659e-06
1.4851e-08
6.38205e-11
2.11413e-13
5.61523e-16
1.15314e-18
1.65613e-21
1.44579e-24
6.43483e-28
1.50561e-31
-1.9258e-34
1.16015e-39
7.8473e-48
3.18795e-51
-1.5453e-55
-9.19628e-57
-1.01727e-56
3.42966e-60
5.03857e-64
-2.55553e-67
-5.86313e-63
8.88962e-60
6.6686e-61
2.31675e-60
6.41913e-61
0.393669
0.0891033
0.0138388
0.00160168
0.000235035
2.55013e-06
1.67195e-08
7.64177e-11
2.67331e-13
7.4352e-16
1.66344e-18
2.96974e-21
4.12097e-24
4.21453e-27
2.88224e-30
1.22402e-33
6.91766e-37
2.50403e-38
1.1821e-40
2.23597e-43
2.66181e-46
2.24815e-49
1.32882e-52
5.2087e-56
1.2718e-59
-3.58308e-60
1.31853e-54
9.38778e-56
3.51959e-55
1.00982e-55
0.393685
0.0891419
0.0138687
0.00161094
0.000238003
2.6371e-06
1.77832e-08
8.37551e-11
3.0095e-13
8.5739e-16
1.97033e-18
3.6661e-21
5.52551e-24
6.77164e-27
6.88463e-30
6.02903e-33
4.61815e-36
3.35785e-39
2.7634e-42
2.56192e-45
2.47331e-48
2.22283e-51
1.76132e-54
-1.49522e-56
5.94695e-56
-5.17315e-55
1.91488e-49
1.19944e-50
6.35669e-51
4.65425e-52
0.393671
0.0891825
0.013891
0.00161686
0.000239846
2.68705e-06
1.83703e-08
8.77345e-11
3.19336e-13
9.21439e-16
2.15554e-18
4.14024e-21
6.59299e-24
8.81444e-27
1.01382e-29
1.0491e-32
1.03306e-35
8.06074e-39
-4.51248e-41
-1.31409e-42
-3.02968e-44
-6.80417e-46
-2.78748e-47
-3.09071e-49
6.6565e-47
1.36091e-47
2.72424e-44
1.38288e-45
4.68638e-47
1.32599e-48
0.39366
0.0892301
0.0139199
0.00162336
0.000240603
2.68566e-06
1.83088e-08
8.72034e-11
3.1585e-13
9.07616e-16
2.14776e-18
4.86005e-21
2.46248e-23
3.55895e-25
4.13469e-27
-5.95519e-29
-6.41691e-30
-2.92038e-31
-1.068e-32
-3.4049e-34
-9.94805e-36
-2.72433e-37
-7.06133e-39
3.90418e-40
3.83692e-40
2.34284e-41
8.6717e-41
2.56684e-42
6.2282e-44
1.34703e-45
0.393574
0.0893327
0.0139741
0.0016522
0.000156517
1.23308e-05
8.3086e-07
4.8844e-08
2.54703e-09
1.19377e-10
5.08181e-12
1.98203e-13
7.13684e-15
2.39125e-16
7.51289e-18
2.23117e-19
6.30619e-21
1.70466e-22
4.41379e-24
1.09378e-25
2.59074e-27
5.86153e-29
1.26679e-30
2.6176e-32
5.17984e-34
9.83111e-36
1.78739e-37
3.1057e-39
5.16856e-41
8.22731e-43
0.393563
0.0893737
0.0139966
0.00165763
0.000157147
1.23986e-05
8.36595e-07
4.92598e-08
2.57247e-09
1.20716e-10
5.14449e-12
2.00899e-13
7.24617e-15
2.43107e-16
7.6393e-18
2.26269e-19
6.35166e-21
1.69607e-22
4.31703e-24
1.04809e-25
2.42694e-27
5.36044e-29
1.12988e-30
2.27524e-32
4.38044e-34
8.07325e-36
1.42563e-37
2.41451e-39
3.92919e-41
6.13915e-43
0.393557
0.089383
0.0140019
0.00165875
0.000157277
1.24066e-05
8.36955e-07
4.9278e-08
2.57339e-09
1.20764e-10
5.14853e-12
2.01179e-13
7.26428e-15
2.44098e-16
7.68339e-18
2.27809e-19
6.39473e-21
1.70556e-22
4.33238e-24
1.04952e-25
2.4263e-27
5.35568e-29
1.1296e-30
2.27877e-32
4.4018e-34
8.148e-36
1.44699e-37
2.46626e-39
4.04125e-41
6.36967e-43
0.393548
0.0893892
0.0140055
0.0016596
0.000157388
1.24159e-05
8.37577e-07
4.93202e-08
2.57626e-09
1.20947e-10
5.15891e-12
2.01783e-13
7.29364e-15
2.45407e-16
7.73357e-18
2.29573e-19
6.44852e-21
1.72036e-22
4.36994e-24
1.05851e-25
2.44746e-27
5.40558e-29
1.14135e-30
2.30597e-32
4.46164e-34
8.27761e-36
1.47331e-37
2.51774e-39
4.14041e-41
6.55225e-43
0.393816
0.0910744
0.0148243
0.0018647
0.000191602
1.66832e-05
1.26336e-06
8.4819e-08
5.12473e-09
2.82015e-10
1.42744e-11
6.70013e-13
2.9369e-14
1.20942e-15
4.70353e-17
1.73518e-18
6.09381e-20
2.04276e-21
6.5478e-23
2.00884e-24
5.90196e-26
1.66062e-27
4.47471e-29
1.15469e-30
2.85362e-32
6.75643e-34
1.53279e-35
3.33395e-37
6.96357e-39
1.39513e-40
0.393808
0.0910795
0.0148288
0.00186621
0.000191916
1.67292e-05
1.26844e-06
8.52734e-08
5.15926e-09
2.8432e-10
1.44122e-11
6.77544e-13
2.9749e-14
1.22742e-15
4.78435e-17
1.76992e-18
6.23731e-20
2.09956e-21
6.76198e-23
2.08533e-24
6.1602e-26
1.74285e-27
4.72209e-29
1.225e-30
3.0424e-32
7.23609e-34
1.64871e-35
3.59976e-37
7.54439e-39
1.51609e-40
0.393792
0.0910903
0.0148389
0.0018696
0.000192618
1.68312e-05
1.27971e-06
8.62945e-08
5.23879e-09
2.89784e-10
1.47478e-11
6.96226e-13
3.07038e-14
1.2729e-15
4.98856e-17
1.85733e-18
6.59584e-20
2.24036e-21
7.28906e-23
2.27247e-24
6.78938e-26
1.94289e-27
5.32448e-29
1.39662e-30
3.50582e-32
8.4199e-34
1.93579e-35
4.26159e-37
8.99784e-39
1.82008e-40
0.393759
0.0911034
0.0148552
0.00187599
0.00019401
1.69924e-05
1.2947e-06
8.74915e-08
5.32325e-09
2.95097e-10
1.50484e-11
7.1154e-13
3.1413e-14
1.30318e-15
5.11114e-17
1.90593e-18
6.7898e-20
2.31825e-21
7.59584e-23
2.388e-24
7.19905e-26
2.07951e-27
5.75281e-29
1.52298e-30
3.85561e-32
9.32835e-34
2.1573e-35
4.77172e-37
1.01142e-38
2.05359e-40
0.393728
0.0911061
0.0148725
0.00188524
0.000359317
8.49527e-06
1.27889e-07
1.34147e-09
1.08401e-11
9.40909e-14
1.85298e-15
6.76408e-17
2.64657e-18
9.9287e-20
3.54842e-21
1.21206e-22
3.96546e-24
1.24502e-25
3.75354e-27
1.08733e-28
3.02504e-30
8.09368e-32
2.08291e-33
5.14053e-35
1.89767e-35
1.52769e-36
1.76484e-38
6.22514e-40
1.79653e-41
4.51988e-43
0.393684
0.0911197
0.0148902
0.00189188
0.00036187
8.62113e-06
1.30668e-07
1.37034e-09
1.05333e-11
6.20373e-14
2.8934e-16
1.09582e-18
3.43996e-21
9.12415e-24
2.08747e-26
4.22941e-29
8.09797e-32
2.17834e-34
1.78275e-36
1.75704e-38
-2.37781e-40
-2.43952e-41
-1.04224e-42
-3.51905e-44
2.40451e-42
1.57511e-42
1.06127e-41
6.23448e-43
2.38405e-44
7.20557e-46
0.39365
0.0911324
0.0149032
0.00189617
0.000363409
8.71001e-06
1.3316e-07
1.41205e-09
1.10042e-11
6.58562e-14
3.12312e-16
1.20023e-18
3.80355e-21
1.01073e-23
2.30058e-26
4.62419e-29
8.52618e-32
1.47572e-34
2.35904e-37
3.37295e-40
4.24518e-43
4.69294e-46
4.5069e-49
4.71609e-51
5.07593e-49
1.82857e-48
9.05644e-45
7.07537e-46
3.24878e-47
1.10551e-48
0.393609
0.0911369
0.0149111
0.00189873
0.000364269
8.76116e-06
1.34799e-07
1.44456e-09
1.14386e-11
6.99075e-14
3.39291e-16
1.33089e-18
4.2663e-21
1.12917e-23
2.51094e-26
4.85984e-29
8.651e-32
1.4837e-34
2.39919e-37
3.46245e-40
4.41706e-43
5.08097e-46
5.29718e-49
4.93706e-52
2.1574e-54
8.59656e-54
1.33039e-47
1.19836e-48
6.09814e-50
2.17165e-51
0.393558
0.0911296
0.0149117
0.00189868
0.000364083
8.75359e-06
1.35035e-07
1.45973e-09
1.17652e-11
7.38572e-14
3.69818e-16
1.48974e-18
4.82304e-21
1.24201e-23
2.50408e-26
3.99531e-29
1.4858e-32
2.61605e-37
3.53725e-40
6.60557e-43
4.61506e-47
-1.66308e-51
1.22774e-53
5.66884e-55
1.18644e-57
-9.8955e-58
2.61903e-50
2.47566e-51
1.31294e-52
4.60629e-54
0.393491
0.0911027
0.0148999
0.00189425
0.000362119
8.64028e-06
1.32474e-07
1.43361e-09
1.1729e-11
7.58478e-14
3.92732e-16
1.6124e-18
5.12475e-21
1.20954e-23
1.98458e-26
4.15421e-29
1.16681e-34
4.48542e-46
4.85852e-51
2.07139e-52
-4.03884e-59
1.2896e-59
5.58276e-63
4.89326e-63
2.47834e-63
-8.65031e-61
4.0555e-53
4.04598e-54
2.25802e-55
7.59063e-57
0.39341
0.0910468
0.0148703
0.00188314
0.000357342
8.3493e-06
1.24891e-07
1.32677e-09
1.0896e-11
7.30324e-14
4.00568e-16
1.77382e-18
6.24953e-21
1.7054e-23
3.31122e-26
3.67354e-29
8.50425e-34
-3.79127e-73
6.16266e-69
2.11545e-72
8.76677e-70
1.47769e-65
3.46567e-61
9.38005e-57
2.20303e-57
1.71687e-58
6.20595e-60
0.393319
0.0909605
0.0148178
0.0018634
0.000348777
7.81036e-06
1.10172e-07
1.10702e-09
9.08531e-12
6.75193e-14
4.41161e-16
2.24342e-18
8.31016e-21
2.27934e-23
4.60141e-26
5.53575e-29
1.58017e-33
3.53023e-80
2.54765e-78
3.81041e-77
2.50789e-74
6.74937e-70
2.73878e-65
2.42403e-61
3.35338e-62
2.22178e-63
5.35621e-64
0.39323
0.0908495
0.0147467
0.00183611
0.000336598
7.02544e-06
8.85313e-08
1.42934e-09
7.2098e-13
2.20054e-16
7.26678e-20
5.79963e-22
4.11559e-25
1.3939e-27
1.78703e-29
1.4991e-31
9.89975e-36
-7.35852e-85
4.83039e-76
3.62711e-73
2.43983e-74
-7.01361e-76
-1.00468e-68
1.06624e-60
1.07333e-61
6.13617e-63
2.507e-64
0.39316
0.0907417
0.0146752
0.00180823
0.000323707
6.18659e-06
6.57752e-08
7.49356e-10
2.76402e-40
1.68395e-36
1.59696e-33
3.74479e-35
5.82611e-40
-7.09811e-53
9.87591e-61
3.3792e-63
-3.66087e-70
1.0539e-67
1.93083e-70
7.36774e-74
7.90017e-77
-3.30243e-69
2.91239e-61
2.82652e-62
1.54955e-63
6.38446e-65
0.393117
0.0906719
0.0146293
0.00179042
0.000315012
5.62321e-06
5.19896e-08
4.05113e-10
6.94719e-48
2.05614e-40
6.6578e-38
1.05034e-39
1.56037e-43
6.48172e-47
3.2392e-50
1.08526e-53
2.5265e-57
5.10192e-61
9.33291e-65
1.45467e-68
1.83997e-72
-1.54871e-71
8.14973e-64
1.36428e-64
1.09883e-65
7.46529e-67
0.39312
0.090673
0.0146293
0.00179035
0.000314073
5.52633e-06
4.96146e-08
3.55306e-10
3.99017e-49
7.32485e-43
2.51447e-40
7.05433e-42
1.85192e-45
1.30168e-48
9.63435e-52
5.87997e-55
2.80081e-58
1.04564e-61
3.12043e-65
7.25297e-69
1.26122e-72
-2.45198e-71
7.44162e-64
1.19311e-64
8.82116e-66
5.67699e-67
0.393158
0.0907402
0.0146743
0.00180796
0.000321156
5.90854e-06
5.7976e-08
5.01858e-10
1.41608e-46
3.10036e-38
1.0252e-35
7.38676e-38
1.07133e-42
9.0237e-49
1.74809e-53
2.34965e-56
3.28816e-60
1.75456e-64
8.61342e-68
2.29862e-71
3.77725e-75
-4.84996e-69
3.62751e-61
3.49487e-62
1.81498e-63
7.33522e-65
0.39323
0.0908493
0.0147457
0.00183576
0.00033341
6.66142e-06
7.73612e-08
1.04131e-09
5.14725e-14
3.45016e-26
4.46195e-31
1.87893e-29
2.6064e-41
4.26672e-32
1.69061e-31
7.03042e-34
8.51659e-40
2.04761e-55
6.61396e-65
-1.77201e-66
-7.86533e-74
2.13035e-73
1.62474e-72
2.58121e-74
2.51263e-76
-2.21468e-68
2.20558e-60
2.72911e-61
1.83189e-62
9.09813e-64
0.393315
0.0909584
0.0148165
0.00186297
0.000345979
7.49335e-06
1.00532e-07
9.61323e-10
7.46418e-12
5.4881e-14
2.83298e-16
6.80346e-19
7.1197e-22
6.32435e-25
1.19857e-27
2.35333e-30
6.03575e-35
-9.28036e-81
4.97049e-76
2.64543e-76
3.6084e-76
6.74805e-73
2.24147e-67
8.82943e-61
1.46361e-61
1.206e-62
6.85034e-64
0.393408
0.0910454
0.0148689
0.00188271
0.000355344
8.13087e-06
1.18465e-07
1.22786e-09
1.0059e-11
7.00446e-14
4.15973e-16
2.05933e-18
8.23049e-21
2.58042e-23
5.79322e-26
7.26804e-29
2.00699e-33
-6.19342e-75
1.04449e-69
4.34681e-74
2.16681e-75
6.49886e-71
2.44675e-66
1.68802e-61
3.51031e-62
3.23481e-63
2.29621e-64
0.393503
0.0911015
0.0148984
0.00189385
0.00036083
8.50902e-06
1.2895e-07
1.38401e-09
1.13307e-11
7.41183e-14
3.8964e-16
1.61734e-18
5.18263e-21
1.23786e-23
2.04651e-26
3.91927e-29
9.5515e-35
-4.43401e-70
2.85457e-61
1.98685e-64
-8.40466e-71
-2.21007e-69
-5.2341e-65
9.19559e-62
1.82936e-60
5.93513e-61
8.73742e-62
0.393555
0.0911326
0.0149117
0.00189833
0.000363283
8.68236e-06
1.33376e-07
1.44136e-09
1.16826e-11
7.4203e-14
3.76512e-16
1.52674e-18
4.87931e-21
1.19236e-23
2.1233e-26
5.02181e-29
1.00872e-33
1.01186e-41
4.83232e-48
1.37833e-48
-7.97802e-56
8.97722e-54
2.40055e-56
1.42129e-61
3.24827e-65
-1.17219e-62
-1.85108e-58
8.24268e-57
1.35026e-56
3.13647e-57
0.393592
0.0911324
0.0149105
0.00189846
0.000363762
8.72462e-06
1.3416e-07
1.4412e-09
1.14826e-11
7.08349e-14
3.47495e-16
1.37344e-18
4.40092e-21
1.1455e-23
2.4364e-26
4.34578e-29
7.05927e-32
1.1964e-34
2.09021e-37
3.17131e-40
3.89175e-43
3.76765e-46
2.74882e-49
1.44643e-52
5.39436e-56
1.47319e-59
-1.41916e-53
4.12841e-53
3.5188e-53
6.17463e-54
0.393649
0.0911281
0.0149014
0.00189576
0.000363133
8.69341e-06
1.33035e-07
1.41457e-09
1.10774e-11
6.67283e-14
3.18552e-16
1.22939e-18
3.89264e-21
1.02492e-23
2.29068e-26
4.50083e-29
8.15384e-32
1.39776e-34
2.20412e-37
3.06734e-40
3.71522e-43
3.93083e-46
3.65884e-49
3.03031e-52
2.26824e-55
7.10783e-56
-6.16707e-50
1.17711e-49
6.7485e-50
9.55593e-51
0.393685
0.0911193
0.0148895
0.0018916
0.000361724
8.62494e-06
1.31023e-07
1.37841e-09
1.06383e-11
6.29279e-14
2.94584e-16
1.11782e-18
3.50367e-21
9.23945e-24
2.09285e-26
4.18251e-29
7.6e-32
1.28281e-34
2.00102e-37
2.79533e-40
2.35335e-43
-3.28975e-45
-1.04583e-46
-2.81476e-48
-7.082e-50
8.59847e-51
-3.4013e-45
7.93429e-46
2.44954e-46
2.24886e-47
0.393726
0.0911052
0.0148718
0.00188496
0.000359437
8.506e-06
1.27966e-07
1.33118e-09
1.01378e-11
5.90958e-14
2.72778e-16
1.02589e-18
3.33239e-21
1.35643e-23
1.82058e-25
4.94281e-27
1.39744e-28
3.80504e-30
9.86314e-32
2.42129e-33
5.56612e-35
1.18217e-36
2.26065e-38
3.68478e-40
4.39005e-42
-7.42552e-45
-4.44122e-40
1.31807e-41
1.42509e-42
6.78166e-44
0.393758
0.0911024
0.0148546
0.00187573
0.000193947
1.69819e-05
1.29326e-06
8.73336e-08
5.30828e-09
2.93867e-10
1.49583e-11
7.05732e-13
3.10741e-14
1.28502e-15
5.02152e-17
1.86485e-18
6.61394e-20
2.24755e-21
7.32766e-23
2.29134e-24
6.86861e-26
1.97246e-27
5.42752e-29
1.43144e-30
3.62143e-32
8.79061e-34
2.04853e-35
4.58397e-37
9.86199e-39
2.0368e-40
0.393791
0.0910891
0.0148381
0.00186932
0.000192554
1.68202e-05
1.27824e-06
8.61338e-08
5.22395e-09
2.88582e-10
1.46619e-11
6.90783e-13
3.03879e-14
1.25612e-15
4.90605e-17
1.81969e-18
6.43593e-20
2.1765e-21
7.04853e-23
2.18733e-24
6.50441e-26
1.85313e-27
5.06042e-29
1.3247e-30
3.32578e-32
8.01256e-34
1.85319e-35
4.11618e-37
8.79087e-39
1.80242e-40
0.393807
0.0910786
0.0148282
0.00186597
0.000191857
1.67189e-05
1.26704e-06
8.51181e-08
5.14493e-09
2.83169e-10
1.43321e-11
6.72371e-13
2.94539e-14
1.21184e-15
4.70923e-17
1.73608e-18
6.09484e-20
2.04345e-21
6.55457e-23
2.01329e-24
5.92393e-26
1.6704e-27
4.51439e-29
1.16985e-30
2.90845e-32
6.93864e-34
1.5895e-35
3.49682e-37
7.3983e-39
1.50378e-40
0.393814
0.0910735
0.0148238
0.00186446
0.000191541
1.66726e-05
1.26194e-06
8.46645e-08
5.1105e-09
2.80879e-10
1.41944e-11
6.6503e-13
2.90828e-14
1.19454e-15
4.63151e-17
1.70297e-18
5.9595e-20
1.99028e-21
6.35555e-23
1.9426e-24
5.68805e-26
1.59581e-27
4.29215e-29
1.10707e-30
2.73925e-32
6.50724e-34
1.48416e-35
3.2518e-37
6.85361e-39
1.38815e-40
0.393405
0.0904667
0.0145531
0.00179854
0.000180668
1.53183e-05
1.12627e-06
7.32711e-08
4.28465e-09
2.28055e-10
1.1163e-11
5.06861e-13
2.15052e-14
8.57997e-16
3.23658e-17
1.15968e-18
3.96148e-20
1.29378e-21
4.04734e-23
1.21411e-24
3.49503e-26
9.65629e-28
2.561e-29
6.5208e-31
1.59428e-32
3.74393e-34
8.44655e-36
1.83185e-37
3.82435e-39
7.68335e-41
0.393407
0.0904687
0.0145542
0.00179896
0.000180763
1.53333e-05
1.12807e-06
7.3445e-08
4.29859e-09
2.29025e-10
1.12229e-11
5.10204e-13
2.16771e-14
8.6628e-16
3.27444e-17
1.17626e-18
4.03118e-20
1.32175e-21
4.15378e-23
1.25237e-24
3.6242e-26
1.00677e-27
2.68487e-29
6.87252e-31
1.68878e-32
3.98486e-34
9.03066e-36
1.96654e-37
4.1209e-39
8.30759e-41
0.393409
0.0904728
0.0145566
0.00179981
0.000180955
1.53642e-05
1.13179e-06
7.38029e-08
4.3276e-09
2.31068e-10
1.13507e-11
5.17416e-13
2.20512e-14
8.84399e-16
3.35774e-17
1.2129e-18
4.18574e-20
1.38403e-21
4.39176e-23
1.33813e-24
3.91493e-26
1.09969e-27
2.96565e-29
7.67447e-31
1.9058e-32
4.54161e-34
1.03904e-35
2.28286e-37
4.82379e-39
9.80089e-41
0.393415
0.0904783
0.0145598
0.00180094
0.000181243
1.53817e-05
1.13292e-06
7.39124e-08
4.3386e-09
2.31998e-10
1.14168e-11
5.21416e-13
2.22659e-14
8.95031e-16
3.40819e-17
1.23647e-18
4.29436e-20
1.43229e-21
4.59344e-23
1.41633e-24
4.19618e-26
1.19378e-27
3.26008e-29
8.53982e-31
2.14465e-32
5.16223e-34
1.19143e-35
2.63786e-37
5.61035e-39
1.14663e-40
0.393425
0.0904852
0.0145625
0.00180246
0.000335313
7.57496e-06
1.07594e-07
1.06038e-09
8.11637e-12
6.96571e-14
1.41559e-15
5.11474e-17
1.95007e-18
7.12621e-20
2.48469e-21
8.29646e-23
2.65871e-24
8.19321e-26
2.4302e-27
6.93963e-29
1.90895e-30
5.05548e-32
1.29044e-33
1.88299e-34
2.59418e-35
1.12458e-36
1.11159e-38
3.81652e-40
1.08822e-41
2.72649e-43
0.393429
0.0904884
0.0145644
0.00180336
0.000335899
7.61926e-06
1.08777e-07
1.07166e-09
7.76781e-12
4.34085e-14
1.93661e-16
7.08485e-19
2.17252e-21
5.69608e-24
1.30341e-26
2.66961e-29
5.23446e-32
1.51691e-34
1.45899e-36
2.11314e-38
1.54798e-40
-5.91145e-42
-3.8573e-43
1.1977e-41
1.98971e-41
2.2948e-42
7.92348e-42
4.47794e-43
1.68309e-44
5.04581e-46
0.393434
0.0904873
0.0145639
0.00180355
0.000336218
7.65363e-06
1.09985e-07
1.0946e-09
8.04759e-12
4.57937e-14
2.08556e-16
7.79081e-19
2.43397e-21
6.47673e-24
1.49937e-26
3.10385e-29
5.93666e-32
1.07464e-34
1.82724e-37
2.84777e-40
4.02819e-43
5.17918e-46
6.02744e-49
2.25664e-48
2.31745e-47
5.83745e-48
7.89025e-45
6.03837e-46
2.77737e-47
9.5669e-49
0.393434
0.0904787
0.0145583
0.00180222
0.000336038
7.66735e-06
1.10859e-07
1.11606e-09
8.35855e-12
4.87879e-14
2.29017e-16
8.82478e-19
2.83188e-21
7.66962e-24
1.78572e-26
3.69909e-29
7.22846e-32
1.4069e-34
2.68848e-37
4.76867e-40
7.65779e-43
1.11151e-45
1.45491e-48
1.70885e-51
1.02802e-52
4.16791e-53
1.22859e-47
1.13003e-48
5.95338e-50
2.22859e-51
0.39343
0.0904576
0.0145445
0.00179826
0.000334986
7.64193e-06
1.10967e-07
1.13108e-09
8.67617e-12
5.25234e-14
2.57999e-16
1.04257e-18
3.4877e-21
9.6773e-24
2.23375e-26
4.37659e-29
2.37339e-32
4.91947e-37
7.05766e-40
1.22718e-42
1.04655e-46
1.05226e-51
2.38169e-53
5.65856e-55
2.00238e-57
-3.26055e-58
2.28873e-50
2.30017e-51
1.31103e-52
5.07607e-54
0.393424
0.0904169
0.0145182
0.00179014
0.000332481
7.54422e-06
1.09471e-07
1.12753e-09
8.90696e-12
5.67784e-14
2.98402e-16
1.29554e-18
4.62372e-21
1.33705e-23
3.00114e-26
9.1833e-29
5.38737e-34
3.02817e-45
1.98156e-51
8.78887e-52
-4.03052e-59
2.77055e-59
1.0057e-62
1.24083e-63
1.55853e-63
-5.2777e-61
3.22331e-53
3.66743e-54
2.32539e-55
9.41688e-57
0.393413
0.0903505
0.0144741
0.00177602
0.000327749
7.32701e-06
1.04968e-07
1.08148e-09
8.80825e-12
6.02457e-14
3.49497e-16
1.70767e-18
6.93817e-21
2.27696e-23
5.4936e-26
7.26945e-29
1.64356e-33
-5.3338e-73
1.27742e-68
3.72815e-72
9.55197e-71
2.85649e-66
1.49031e-61
2.20388e-56
3.58081e-57
2.82463e-58
1.28011e-59
0.393396
0.0902563
0.0144099
0.00175475
0.000320167
6.9392e-06
9.56043e-08
9.51664e-10
7.74512e-12
5.78933e-14
3.86731e-16
1.90895e-18
6.24273e-21
1.42458e-23
2.56769e-26
3.15967e-29
9.6999e-34
7.3169e-80
2.78014e-75
5.46858e-71
2.94917e-71
3.9699e-69
3.38064e-64
1.88856e-58
2.16636e-59
1.3585e-60
5.69116e-62
0.393388
0.0901429
0.0143317
0.00172785
0.000309982
6.36855e-06
8.005e-08
1.29397e-09
6.27684e-13
1.70094e-16
4.85682e-20
1.77879e-22
4.69328e-26
4.02884e-29
3.85073e-30
6.01823e-32
3.0601e-36
-2.77272e-79
6.38893e-69
2.16796e-67
7.19781e-69
3.54766e-71
-5.22672e-66
6.97751e-58
7.17869e-59
4.17062e-60
1.67963e-61
0.393375
0.0900369
0.0142573
0.00170168
0.000299516
5.74193e-06
6.17678e-08
6.69065e-10
1.45482e-41
5.55371e-37
2.85886e-34
5.44965e-36
1.23678e-40
-2.0282e-54
7.99783e-61
4.80297e-64
-1.49566e-70
1.23887e-64
6.09661e-67
1.17879e-69
1.27148e-71
-2.00838e-66
2.35749e-58
2.31402e-59
1.28408e-60
5.154e-62
0.393369
0.0899721
0.0142115
0.0016855
0.000292614
5.31779e-06
5.05299e-08
3.82558e-10
1.01103e-48
4.07828e-41
1.09685e-38
7.42577e-41
6.00044e-45
2.35809e-48
1.09027e-51
3.27567e-55
6.94173e-59
1.28151e-62
2.15449e-66
3.14056e-70
3.82105e-74
-2.03051e-68
1.39321e-60
2.25323e-61
1.78543e-62
1.10723e-63
0.39337
0.0899722
0.0142111
0.00168541
0.000291875
5.24086e-06
4.85274e-08
3.42301e-10
2.68058e-51
2.62686e-44
2.12752e-41
3.53132e-43
6.93999e-47
4.43872e-50
2.96916e-53
1.60402e-56
6.45983e-60
1.95707e-63
4.64821e-67
8.63818e-71
1.24093e-74
-2.98458e-68
1.39766e-60
2.18262e-61
1.62805e-62
9.62626e-64
0.393376
0.0900357
0.0142562
0.00170138
0.000297511
5.52331e-06
5.51347e-08
4.56932e-10
9.38194e-47
1.1189e-38
2.16231e-36
5.65257e-39
6.88795e-44
7.77656e-50
9.80481e-55
8.20863e-58
1.5329e-61
1.18013e-65
5.99793e-69
7.94358e-72
2.92425e-73
-3.02939e-66
3.45248e-58
3.39242e-59
1.82651e-60
7.0959e-62
0.393384
0.0901399
0.0143301
0.00172738
0.000307458
6.08789e-06
7.08915e-08
9.17339e-10
3.75356e-14
1.94668e-24
2.87527e-31
1.94948e-29
-2.86519e-42
1.41444e-33
3.38483e-32
1.17418e-34
2.12249e-40
3.26066e-56
1.03274e-65
5.3225e-68
-5.57206e-75
3.69515e-66
1.10727e-66
1.01715e-68
7.12119e-71
-1.07373e-65
1.58114e-57
1.91025e-58
1.25932e-59
5.72458e-61
0.393399
0.0902534
0.0144082
0.00175422
0.000317915
6.7016e-06
8.86231e-08
8.3693e-10
6.19607e-12
4.39407e-14
1.93235e-16
2.86668e-19
1.28217e-22
7.76178e-26
3.69803e-28
1.10264e-30
1.94006e-35
-8.6132e-78
3.33469e-74
4.55511e-70
2.44252e-70
4.1732e-72
-5.21144e-66
6.55187e-58
9.73094e-59
7.45575e-60
3.76449e-61
0.393413
0.0903487
0.0144723
0.00177549
0.000326079
7.16196e-06
1.00685e-07
1.02352e-09
8.39017e-12
5.97802e-14
3.77144e-16
2.05013e-18
9.17495e-21
3.29972e-23
8.83955e-26
1.32202e-28
3.67803e-33
-4.29684e-78
6.10769e-72
8.93251e-75
1.08689e-74
-1.05736e-70
-5.9183e-66
1.7095e-58
2.87883e-59
2.3843e-60
1.50317e-61
0.393435
0.0904197
0.0145168
0.00178966
0.000331338
7.43988e-06
1.07105e-07
1.10231e-09
8.8202e-12
5.79692e-14
3.17613e-16
1.44065e-18
5.35919e-21
1.60044e-23
3.56849e-26
9.23296e-29
2.07323e-34
-2.05723e-71
6.54314e-64
2.37332e-65
7.00818e-68
-4.79001e-67
-7.45399e-62
1.44018e-56
6.92071e-57
1.17381e-57
1.09413e-58
0.393418
0.0904562
0.0145436
0.00179776
0.000334251
7.57732e-06
1.0972e-07
1.1214e-09
8.7015e-12
5.37789e-14
2.71523e-16
1.12906e-18
3.86697e-21
1.08354e-23
2.44062e-26
8.18622e-29
3.05594e-33
4.64832e-41
1.02999e-47
1.19364e-48
-9.52292e-57
1.04962e-54
3.13997e-57
3.81118e-59
1.72783e-62
-1.57186e-60
6.73082e-53
1.69502e-53
1.95413e-54
1.3222e-55
0.393436
0.0904701
0.0145566
0.00180183
0.000335506
7.62785e-06
1.10191e-07
1.11283e-09
8.40475e-12
4.97279e-14
2.37394e-16
9.30323e-19
3.02302e-21
8.21345e-24
1.88887e-26
3.80277e-29
7.17035e-32
1.4152e-34
2.9073e-37
5.03575e-40
6.59158e-43
6.3973e-46
4.66432e-49
2.5925e-52
1.14381e-55
-2.01167e-57
8.76304e-50
1.7677e-50
1.67531e-51
1.01383e-52
0.393434
0.0904856
0.0145619
0.00180298
0.000335828
7.62783e-06
1.09601e-07
1.0935e-09
8.08485e-12
4.63872e-14
2.13284e-16
8.04168e-19
2.5285e-21
6.73631e-24
1.55208e-26
3.1903e-29
6.12119e-32
1.13799e-34
2.02047e-37
3.30649e-40
4.90566e-43
6.57551e-46
7.95171e-49
8.68133e-52
8.59714e-55
-5.19864e-54
1.13921e-46
1.79986e-47
1.36676e-48
7.19373e-50
0.393431
0.0904871
0.0145632
0.00180295
0.000335627
7.60149e-06
1.08562e-07
1.07141e-09
7.79239e-12
4.37562e-14
1.9629e-16
7.21466e-19
2.21914e-21
5.8209e-24
1.32999e-26
2.71203e-29
5.06715e-32
8.83964e-35
1.43611e-37
2.12471e-40
2.27892e-43
-1.58416e-45
-5.55016e-47
-1.51377e-48
-3.88423e-50
-2.68682e-50
2.79381e-43
2.97617e-44
1.64875e-45
6.89391e-47
0.393426
0.0904839
0.0145613
0.00180203
0.000335118
7.56282e-06
1.07293e-07
1.04911e-09
7.5362e-12
4.16799e-14
1.83838e-16
6.67175e-19
2.12603e-21
8.97234e-24
1.27697e-25
3.43923e-27
9.67352e-29
2.62344e-30
6.8215e-32
1.68656e-33
3.96474e-35
8.74645e-37
1.79498e-38
3.3977e-40
5.50583e-42
6.84239e-44
1.30523e-39
7.70429e-41
2.87739e-42
8.91304e-44
0.393416
0.0904766
0.0145585
0.00180052
0.000181152
1.53676e-05
1.13118e-06
7.37385e-08
4.32343e-09
2.30844e-10
1.13382e-11
5.16632e-13
2.20032e-14
8.81764e-16
3.34646e-17
1.20955e-18
4.18471e-20
1.39018e-21
4.4409e-23
1.36368e-24
4.02426e-26
1.1405e-27
3.10554e-29
8.1255e-31
2.04443e-32
4.94901e-34
1.15301e-35
2.58571e-37
5.5868e-39
1.16246e-40
0.39341
0.0904711
0.0145553
0.00179937
0.00018086
1.53493e-05