/*--------------------------------*- C++ -*----------------------------------*\
  =========                 |
  \\      /  F ield         | OpenFOAM: The Open Source CFD Toolbox
   \\    /   O peration     | Website:  https://openfoam.org
    \\  /    A nd           | Version:  10
     \\/     M anipulation  |
\*---------------------------------------------------------------------------*/
FoamFile
{
    format      ascii;
    class       volScalarField;
    location    "4.5";
    object      T;
}
// * * * * * * * * * * * * * * * * * * * * * * * * * * * * * * * * * * * * * //

dimensions      [0 0 0 1 0 0 0];

internalField   nonuniform List<scalar> 
96305
(
0.593517
0.225494
0.061207
0.0127522
0.00214164
0.000300336
3.60955e-05
3.79182e-06
3.53652e-07
2.96631e-08
2.26161e-09
1.5817e-10
1.02275e-11
6.15755e-13
3.47359e-14
1.84623e-15
9.28848e-17
4.43933e-18
2.02058e-19
8.77108e-21
3.6344e-22
1.43797e-23
5.43364e-25
1.96107e-26
6.76191e-28
2.23167e-29
7.04891e-31
2.13053e-32
6.17201e-34
1.70935e-35
0.59354
0.225485
0.0611939
0.0127465
0.00214018
0.000300104
3.60676e-05
3.78855e-06
3.53278e-07
2.96224e-08
2.25749e-09
1.5778e-10
1.01939e-11
6.13162e-13
3.45594e-14
1.8358e-15
9.2355e-17
4.41644e-18
2.01234e-19
8.74808e-21
3.63095e-22
1.43914e-23
5.44803e-25
1.97005e-26
6.80834e-28
2.25219e-29
7.13089e-31
2.15922e-32
6.26228e-34
1.73438e-35
0.593557
0.225469
0.0611788
0.0127414
0.00213914
0.000300008
3.60633e-05
3.78821e-06
3.5324e-07
2.96184e-08
2.25666e-09
1.5763e-10
1.01742e-11
6.11206e-13
3.44084e-14
1.82674e-15
9.19501e-17
4.40527e-18
2.01315e-19
8.78191e-21
3.65772e-22
1.45419e-23
5.51828e-25
1.99857e-26
6.90603e-28
2.27936e-29
7.19696e-31
2.17161e-32
6.26934e-34
1.72478e-35
0.593585
0.22537
0.0610768
0.0126961
0.00213023
0.000298019
3.57176e-05
3.73934e-06
3.47584e-07
2.90626e-08
2.20853e-09
1.5385e-10
9.90092e-12
5.93095e-13
3.33285e-14
1.77078e-15
8.9585e-17
4.33629e-18
2.01201e-19
8.94678e-21
3.80933e-22
1.55178e-23
6.04649e-25
2.25338e-26
8.02521e-28
2.7332e-29
8.87571e-31
2.73222e-32
8.00901e-34
2.23202e-35
0.593803
0.225185
0.0609052
0.0125125
0.00318666
0.000107367
2.22603e-06
3.26538e-08
4.22389e-10
9.01628e-12
4.35686e-13
2.586e-14
1.46588e-15
7.70076e-17
3.74684e-18
1.68668e-19
6.9572e-21
2.56581e-22
7.93098e-24
1.60425e-25
-2.25058e-27
-5.07716e-28
8.64764e-28
1.00169e-28
5.55469e-30
2.38e-31
2.87486e-33
1.30845e-34
4.97897e-36
1.66135e-37
0.593834
0.225072
0.0607763
0.012461
0.00317061
0.000108434
2.31114e-06
3.47048e-08
3.97626e-10
3.61817e-12
2.68247e-14
1.64637e-16
8.48088e-19
3.72888e-21
1.43649e-23
3.24576e-21
-4.69978e-20
-6.54606e-21
-2.80147e-22
-3.33878e-24
-1.87586e-26
-6.14541e-29
-1.56835e-31
1.24004e-33
2.07086e-34
1.32427e-35
6.61662e-36
4.70359e-37
2.27447e-38
8.7694e-40
0.593876
0.225013
0.0607004
0.0124215
0.00315249
0.00010725
2.27086e-06
3.37872e-08
3.84314e-10
3.472e-12
2.5431e-14
1.52523e-16
7.53936e-19
3.10574e-21
1.15409e-23
1.2345e-17
-2.45707e-16
-3.98867e-17
-2.39664e-18
-3.84046e-20
-3.47634e-22
-2.117e-24
-7.32999e-27
-1.11766e-29
-7.86557e-33
-5.46908e-36
1.52036e-33
1.30368e-34
6.58338e-36
2.64082e-37
0.593922
0.224927
0.0605817
0.0123564
0.00312051
0.000104714
2.17504e-06
3.17056e-08
3.53889e-10
3.13994e-12
2.24837e-14
1.30112e-16
6.0563e-19
2.25177e-21
8.34567e-21
2.07512e-14
-6.08002e-13
-1.08539e-13
-7.355e-15
-1.29312e-16
-1.39284e-18
-1.06768e-20
-5.9351e-23
-2.27038e-25
-6.14628e-28
-1.21154e-30
-1.12574e-30
-3.3492e-33
8.10166e-34
4.55294e-35
0.59398
0.224784
0.060393
0.0122497
0.00306588
0.000100123
2.00033e-06
2.79441e-08
3.00047e-10
2.5801e-12
1.78701e-14
9.65082e-17
3.79436e-19
9.68193e-22
1.45423e-17
1.55686e-11
-1.27446e-10
-4.67371e-12
-1.11012e-13
-2.70789e-16
-2.16495e-19
-1.75542e-21
-5.55605e-24
-4.39321e-26
-3.54775e-28
-1.6256e-30
-2.83561e-32
-2.67354e-34
6.14393e-36
4.56139e-37
0.594044
0.224562
0.0600995
0.0120797
0.00297608
9.23493e-05
1.70788e-06
2.18213e-08
2.15655e-10
1.66647e-12
9.07472e-15
3.06251e-17
5.92605e-20
1.47286e-22
8.85342e-15
9.52849e-10
-3.66281e-08
-1.96684e-13
-5.43192e-18
-2.91331e-22
-4.50705e-27
-6.6872e-31
-1.98049e-32
-1.12011e-31
-1.57193e-32
-1.31394e-34
-5.53974e-35
8.30395e-38
5.05831e-38
2.19768e-39
0.594126
0.224237
0.0596693
0.0118261
0.00283823
8.02654e-05
1.27272e-06
1.33409e-08
1.01469e-10
5.77078e-13
3.0593e-15
1.85451e-17
1.12145e-19
3.37603e-21
2.87736e-13
1.98708e-07
7.24034e-06
4.79429e-47
9.94924e-41
-4.55194e-41
-2.37827e-40
-5.7292e-40
-3.36003e-41
1.65107e-38
1.3868e-39
7.79477e-41
1.75436e-41
0.594233
0.223811
0.0590971
0.0114824
0.00264513
6.36191e-05
7.40908e-07
4.70132e-09
2.52465e-11
8.42229e-13
2.72238e-14
4.50849e-16
4.50076e-18
2.67529e-20
9.87106e-16
1.93672e-09
1.43415e-07
1.47925e-56
2.30412e-43
2.75568e-41
9.93288e-43
5.10851e-45
5.10211e-42
1.04934e-37
9.57521e-39
5.35863e-40
2.81759e-41
0.594354
0.223333
0.0584398
0.0110817
0.00241143
4.45982e-05
2.66389e-07
3.86949e-10
1.09523e-12
8.58658e-15
1.04553e-17
7.13332e-18
4.00093e-20
7.64338e-23
-1.03309e-17
1.6516e-11
1.85201e-09
-1.35201e-51
7.04125e-39
5.4737e-37
1.20342e-38
4.67179e-41
7.45455e-44
2.46265e-39
1.04421e-40
4.43444e-42
2.20804e-43
0.594476
0.222906
0.0578406
0.010713
0.0021869
2.84139e-05
3.70209e-08
2.38496e-11
-4.03494e-31
-2.72472e-21
-6.02671e-19
6.18665e-14
3.1939e-12
4.35981e-24
8.56572e-30
4.9019e-31
-1.3643e-36
3.18897e-32
2.43153e-33
3.06173e-35
1.35371e-37
2.76406e-40
2.0068e-37
4.4063e-39
6.42364e-41
8.37939e-43
0.594543
0.222646
0.0574777
0.0104897
0.00204106
1.95012e-05
4.40259e-10
2.68543e-11
-2.0527e-28
-1.14853e-21
-2.7701e-19
2.37087e-16
5.33904e-15
5.13938e-17
2.97009e-19
1.06162e-21
2.47262e-24
4.343e-27
5.80774e-30
5.78794e-33
6.61719e-36
2.65699e-38
3.83643e-36
1.27347e-37
2.49274e-39
4.22502e-41
0.594543
0.222647
0.0574776
0.0104893
0.00202253
1.78604e-05
3.95564e-10
2.19844e-11
-1.25996e-29
-1.31536e-25
-7.23975e-24
9.21584e-22
1.17851e-20
1.80613e-22
1.69397e-24
9.9221e-27
3.85503e-29
1.09917e-31
4.68346e-34
1.81391e-36
3.66536e-39
5.71377e-42
1.71764e-38
6.13469e-40
1.2244e-41
2.14664e-43
0.594475
0.222901
0.0578369
0.0107111
0.00213774
2.32257e-05
2.84781e-09
3.5601e-11
-4.83565e-34
-1.76872e-29
6.7903e-30
-5.61804e-30
-1.21696e-27
-2.00375e-28
-8.56082e-31
1.24595e-31
5.58878e-35
3.04673e-38
7.33334e-38
3.91388e-39
2.81835e-41
7.2021e-44
2.75116e-40
8.48211e-42
1.50529e-43
2.3517e-45
0.594355
0.22333
0.0584347
0.0110788
0.00234906
3.63574e-05
1.20842e-07
5.16736e-12
6.90961e-15
1.38282e-20
3.27238e-25
4.29548e-26
1.55771e-32
1.56675e-26
1.60443e-26
-2.70112e-31
2.33014e-36
2.21992e-45
1.5247e-42
2.90757e-41
-2.84351e-48
3.77169e-43
1.51558e-40
6.66802e-42
3.75637e-44
7.08597e-47
2.80081e-42
7.8084e-44
1.3446e-45
2.14502e-47
0.594231
0.223805
0.0590895
0.0114784
0.00258753
5.48296e-05
4.8639e-07
1.86272e-09
3.02797e-11
1.8304e-12
3.77015e-14
3.40995e-16
1.62784e-18
5.37881e-21
1.32869e-23
-8.60216e-29
3.49968e-33
-1.84477e-61
2.45814e-49
2.44462e-45
7.96689e-46
7.61768e-48
3.52007e-49
1.93224e-44
5.06333e-46
8.26109e-48
1.19223e-49
0.594128
0.224229
0.0596612
0.0118213
0.00279405
7.30054e-05
1.01374e-06
8.7189e-09
5.28887e-11
3.72239e-13
5.00879e-15
1.07431e-16
1.30594e-18
7.89401e-21
2.11222e-23
-1.69169e-27
6.26029e-32
1.29562e-66
2.45381e-54
1.35617e-50
2.90719e-50
5.70767e-52
1.70873e-50
9.56237e-47
2.38333e-48
3.41554e-50
3.66436e-52
0.594042
0.224547
0.0600857
0.0120739
0.00294469
8.71146e-05
1.50347e-06
1.76676e-08
1.57818e-10
1.0231e-12
4.46681e-15
1.41329e-17
3.69054e-20
8.25007e-23
1.4641e-25
-3.26352e-28
1.25111e-32
1.12198e-65
2.92708e-52
8.57158e-55
4.5241e-55
4.83336e-56
1.393e-52
3.16625e-49
7.59043e-51
9.41978e-53
8.63991e-55
0.594018
0.224795
0.0603892
0.0122453
0.00304456
9.66078e-05
1.85937e-06
2.49081e-08
2.57218e-10
2.13043e-12
1.3689e-14
6.20858e-17
1.74619e-19
2.62542e-22
2.24442e-25
-5.4577e-28
9.37769e-32
6.47181e-38
6.1781e-41
1.66539e-45
-6.04681e-47
5.11331e-47
2.57923e-49
7.21234e-53
2.06828e-57
-4.3753e-55
1.24043e-51
1.12989e-52
5.12998e-52
2.44585e-52
0.593891
0.224921
0.0605738
0.0123508
0.00310611
0.000102408
2.08265e-06
2.96661e-08
3.23776e-10
2.81127e-12
1.96658e-14
1.10118e-16
4.81935e-19
1.57054e-21
3.49409e-24
5.00988e-27
9.57206e-30
1.09317e-30
1.60849e-32
9.56598e-35
3.57868e-37
9.45616e-40
1.73484e-42
2.08794e-45
1.5544e-48
4.89551e-52
5.31233e-47
6.63492e-48
4.26207e-47
2.13069e-47
0.593878
0.224991
0.0606871
0.0124158
0.00314204
0.000105678
2.20885e-06
3.24133e-08
3.63416e-10
3.23283e-12
2.32222e-14
1.35339e-16
6.41143e-19
2.48315e-21
8.04036e-24
2.26476e-26
5.65194e-29
1.35251e-31
3.6385e-34
1.09047e-36
3.4411e-39
9.94475e-42
2.53537e-44
5.76432e-47
2.44464e-48
-2.05474e-47
4.38686e-42
4.77237e-43
4.37252e-43
5.58281e-44
0.593836
0.225068
0.0607671
0.0124549
0.00316397
0.000107543
2.27807e-06
3.38938e-08
3.84951e-10
3.46834e-12
2.53533e-14
1.52366e-16
7.60817e-19
3.20043e-21
1.1638e-23
3.83064e-26
1.21396e-28
3.78727e-31
1.10004e-33
2.50081e-36
-1.29926e-38
-9.12247e-40
-7.44514e-41
1.81785e-40
8.43713e-40
3.05336e-40
3.54646e-37
3.11029e-38
1.8323e-39
9.03492e-41
0.593805
0.225178
0.060896
0.0125071
0.00317353
0.00010753
2.27251e-06
3.3731e-08
3.81375e-10
3.4213e-12
2.50691e-14
1.55481e-16
9.69445e-19
1.23596e-20
3.92433e-22
1.45054e-23
4.765e-25
1.17912e-26
4.11554e-29
-2.00469e-29
-1.78246e-30
-1.11277e-31
-5.92301e-33
1.65066e-33
1.5551e-33
1.67938e-34
6.39406e-34
3.25344e-35
1.37268e-36
5.18217e-38
0.593588
0.225363
0.0610678
0.0126908
0.00212824
0.000297511
3.56154e-05
3.72248e-06
3.4524e-07
2.87802e-08
2.1787e-09
1.51051e-10
9.66302e-12
5.7481e-13
3.20376e-14
1.68651e-15
8.44328e-17
4.04015e-18
1.85083e-19
8.11119e-21
3.39612e-22
1.3576e-23
5.18133e-25
1.88956e-26
6.59508e-28
2.2064e-29
7.06677e-31
2.16181e-32
6.33059e-34
1.77217e-35
0.593559
0.225463
0.0611694
0.0127359
0.0021371
0.000299468
3.59529e-05
3.76982e-06
3.50679e-07
2.93106e-08
2.22424e-09
1.54597e-10
9.91897e-12
5.91574e-13
3.3022e-14
1.73608e-15
8.64323e-17
4.08998e-18
1.84338e-19
7.91875e-21
3.24216e-22
1.26532e-23
4.70938e-25
1.67343e-26
5.68158e-28
1.84542e-29
5.73967e-31
1.71117e-32
4.89923e-34
1.34609e-35
0.593542
0.225479
0.0611855
0.0127412
0.00213819
0.000299573
3.59591e-05
3.77046e-06
3.5076e-07
2.93205e-08
2.22595e-09
1.54816e-10
9.94432e-12
5.94028e-13
3.32153e-14
1.74808e-15
8.70297e-17
4.11351e-18
1.85025e-19
7.9308e-21
3.24173e-22
1.26429e-23
4.7082e-25
1.67586e-26
5.70802e-28
1.86184e-29
5.82268e-31
1.74663e-32
5.03426e-34
1.39609e-35
0.59352
0.225488
0.0611981
0.0127468
0.00213963
0.0002998
3.59867e-05
3.77377e-06
3.51151e-07
2.93644e-08
2.23034e-09
1.55268e-10
9.98339e-12
5.97127e-13
3.34266e-14
1.76128e-15
8.77446e-17
4.14842e-18
1.86594e-19
7.99737e-21
3.26943e-22
1.27584e-23
4.75625e-25
1.69549e-26
5.78414e-28
1.89089e-29
5.92643e-31
1.78227e-32
5.15718e-34
1.43672e-35
0.594193
0.229432
0.0644667
0.0141956
0.00257085
0.000395938
5.31339e-05
6.32794e-06
6.78501e-07
6.62662e-08
5.95174e-09
4.9556e-10
3.85154e-11
2.81079e-12
1.93608e-13
1.26421e-14
7.85341e-16
4.65368e-17
2.63515e-18
1.4273e-19
7.39879e-21
3.6709e-22
1.74323e-23
7.92311e-25
3.44677e-26
1.43569e-27
5.72656e-29
2.18863e-30
8.0276e-32
2.82244e-33
0.594175
0.229437
0.0644817
0.0142054
0.0025746
0.000396937
5.33329e-05
6.35986e-06
6.82841e-07
6.67835e-08
6.00691e-09
5.00928e-10
3.89973e-11
2.85134e-12
1.96842e-13
1.28887e-14
8.0339e-16
4.78017e-17
2.71951e-18
1.48054e-19
7.71622e-21
3.84926e-22
1.83785e-23
8.39694e-25
3.67084e-26
1.53589e-27
6.15252e-29
2.36033e-30
8.68676e-32
3.06344e-33
0.594134
0.229446
0.0645165
0.014228
0.00258317
0.000399185
5.37772e-05
6.43174e-06
6.9282e-07
6.80047e-08
6.14042e-09
5.14147e-10
4.01978e-11
2.95285e-12
2.04926e-13
1.35021e-14
8.4796e-16
5.09006e-17
2.92478e-18
1.60942e-19
8.48191e-21
4.27917e-22
2.0663e-23
9.54466e-25
4.21695e-26
1.78156e-27
7.20078e-29
2.78525e-30
1.03265e-31
3.66563e-33
0.594054
0.22944
0.0645653
0.0142687
0.00260063
0.00040245
5.4241e-05
6.48915e-06
6.99351e-07
6.8688e-08
6.20571e-09
5.19739e-10
4.06261e-11
2.98249e-12
2.06877e-13
1.36349e-14
8.58042e-16
5.17265e-17
2.99131e-18
1.65922e-19
8.82235e-21
4.49332e-22
2.19096e-23
1.02197e-24
4.55607e-26
1.94003e-27
7.89163e-29
3.06845e-30
1.14261e-31
4.07297e-33
0.593976
0.229396
0.0646072
0.0143228
0.00452662
0.000308338
1.383e-05
4.38184e-07
1.03918e-08
2.01236e-10
4.07815e-12
1.40703e-13
8.10383e-15
5.25244e-16
3.33135e-17
2.02784e-18
1.12227e-19
4.77707e-21
2.34395e-22
1.51488e-23
8.59955e-25
4.29517e-26
2.00082e-27
8.87796e-29
3.99266e-29
5.58801e-30
1.18337e-31
7.2138e-33
3.62671e-34
1.59405e-35
0.593872
0.229387
0.0646596
0.0143645
0.00455408
0.000312349
1.41053e-05
4.48899e-07
1.05733e-08
1.91807e-10
2.7625e-12
3.23418e-14
3.13857e-16
2.57161e-18
1.94613e-20
-4.79428e-19
-5.91973e-17
-1.76686e-17
-1.02185e-18
-2.26544e-20
-2.92123e-22
-2.58517e-24
-1.68037e-26
-8.34706e-29
-3.33445e-31
-1.14413e-33
1.42415e-32
1.13714e-33
5.61735e-35
2.2789e-36
0.593791
0.229387
0.0647006
0.0143919
0.00457024
0.000315131
1.43449e-05
4.61318e-07
1.10091e-08
2.02805e-10
2.9683e-12
3.52494e-14
3.45273e-16
2.83452e-18
2.5852e-18
-4.14821e-15
-2.50067e-13
-7.47742e-14
-3.33559e-15
-5.68069e-17
-6.07464e-19
-4.72718e-21
-2.75117e-23
-1.30342e-25
-5.21737e-28
-1.77003e-30
1.63083e-28
1.02924e-29
4.52274e-31
1.67957e-32
0.593699
0.229368
0.0647206
0.0144065
0.00457841
0.000316642
1.44975e-05
4.70795e-07
1.14048e-08
2.14319e-10
3.20718e-12
3.8847e-14
3.84797e-16
3.14711e-18
2.00975e-15
-7.12572e-12
-4.97016e-10
-2.09158e-10
-6.89147e-12
-9.16601e-14
-8.52023e-16
-6.75745e-18
-5.72807e-20
-4.0365e-22
-2.23689e-24
-9.84627e-27
4.77308e-26
2.35404e-27
9.40384e-29
3.3011e-30
0.593589
0.229318
0.0647095
0.0144023
0.00457434
0.000316152
1.45047e-05
4.74635e-07
1.16849e-08
2.25135e-10
3.46977e-12
4.31042e-14
4.30891e-16
3.50432e-18
6.83482e-13
-4.88056e-09
-8.44563e-08
-3.38326e-07
2.74502e-09
1.02343e-10
1.38141e-14
8.60147e-18
9.95139e-21
6.56776e-23
6.46637e-25
2.93986e-27
6.34744e-28
2.6643e-29
9.92322e-31
3.29877e-32
0.593453
0.229217
0.0646469
0.0143661
0.00454939
0.000312066
1.42228e-05
4.65213e-07
1.15956e-08
2.29386e-10
3.64349e-12
4.59963e-14
4.50659e-16
1.40026e-17
1.31559e-10
2.45666e-06
-8.52284e-05
-3.68085e-11
-1.80074e-16
2.57637e-19
-3.25263e-25
-2.48937e-26
4.9768e-30
1.55755e-30
3.51785e-30
3.39148e-32
2.26892e-30
1.07122e-31
4.21954e-33
1.38254e-34
0.593294
0.229047
0.0645113
0.0142817
0.00449167
0.000301956
1.34231e-05
4.30049e-07
1.07111e-08
2.18422e-10
3.66038e-12
4.97557e-14
5.39883e-16
6.97966e-17
2.58112e-09
0.0436064
0.113089
-4.56813e-39
-4.18851e-35
-1.94402e-38
-5.79809e-40
-7.1226e-39
-6.69503e-37
1.65096e-33
1.38683e-34
7.18863e-36
2.62063e-37
0.593128
0.228808
0.0642855
0.0141359
0.00439012
0.00028344
1.18879e-05
3.59291e-07
8.893e-09
1.99989e-10
3.96668e-12
6.17225e-14
7.06827e-16
3.56447e-18
4.06585e-11
0.00054781
0.00211236
-1.24469e-44
2.71247e-38
1.74192e-36
3.95796e-38
4.62083e-40
1.69306e-39
8.17973e-35
8.24374e-36
4.81421e-37
2.29375e-38
0.592979
0.228524
0.0639901
0.0139381
0.00424726
0.000256582
9.64255e-06
4.44358e-07
1.72116e-09
3.93927e-12
1.65471e-15
2.78778e-17
6.56922e-20
-8.64159e-20
-1.49664e-11
1.23689e-05
2.34714e-05
-3.65217e-40
1.53882e-32
8.80286e-32
8.86593e-34
2.45716e-36
3.35206e-39
1.23245e-36
6.01208e-38
2.78994e-39
1.35501e-40
0.59287
0.228261
0.0636991
0.0137379
0.00409669
0.000227888
7.29972e-06
2.46629e-07
-3.16217e-23
-2.54115e-15
-6.21242e-13
1.17595e-08
2.08757e-08
-9.31641e-19
-3.01173e-23
-5.68515e-26
1.40125e-32
7.79294e-26
1.32937e-27
7.33348e-30
1.96781e-32
2.93066e-35
1.69303e-34
2.83817e-36
3.56942e-38
4.05531e-40
0.592807
0.228094
0.0635135
0.0136098
0.00399496
0.000208494
5.86631e-06
1.40367e-07
-6.10412e-21
-1.79755e-15
-3.17436e-13
3.97684e-11
1.70769e-11
1.57215e-13
7.41639e-16
2.32989e-18
4.92008e-21
8.61241e-24
1.75084e-26
1.02525e-27
8.06326e-30
2.16276e-32
1.07059e-32
2.25633e-34
3.32986e-36
4.27312e-38
0.592811
0.228096
0.0635134
0.0136094
0.00398415
0.000205126
5.61512e-06
1.24383e-07
-1.84768e-23
-1.11309e-19
-8.08291e-18
4.90547e-16
1.06846e-16
1.9454e-18
2.55752e-20
2.16024e-22
1.15401e-24
4.49828e-27
2.36786e-29
8.67068e-32
1.25066e-33
1.27995e-35
5.77062e-35
1.31782e-36
2.03142e-38
2.66742e-40
0.592868
0.228257
0.0636957
0.013736
0.00406757
0.000218334
6.4915e-06
1.7065e-07
-2.17297e-27
-4.45883e-23
-8.26004e-26
5.46742e-23
-1.66286e-21
-4.54405e-24
2.98486e-27
-7.64241e-27
-9.33059e-29
2.65979e-30
2.12594e-31
2.57565e-33
1.19951e-35
2.73886e-38
3.17398e-37
8.19179e-39
1.33996e-40
1.78358e-42
0.592978
0.228524
0.0639864
0.0139357
0.00421085
0.000244106
8.48742e-06
3.31213e-07
1.72362e-10
3.32156e-20
6.94545e-26
6.06717e-24
-3.9609e-33
4.29818e-26
6.38259e-25
9.37847e-27
3.66254e-31
-9.97422e-35
-4.75545e-36
-1.70172e-35
1.78005e-41
2.40101e-35
5.32581e-35
1.10899e-36
5.58453e-39
1.18645e-41
1.6782e-39
4.46881e-41
7.54522e-43
1.02012e-44
0.593123
0.228803
0.0642804
0.0141329
0.00435822
0.000272568
1.08819e-05
3.13665e-07
7.22101e-09
1.56438e-10
2.47199e-12
1.88403e-14
6.3388e-17
1.96018e-19
1.48161e-21
9.96746e-24
1.59817e-27
1.66798e-47
2.34365e-43
8.20999e-40
8.66447e-41
6.78606e-43
1.60219e-45
7.69348e-42
1.91877e-43
3.11928e-45
3.84839e-47
0.593291
0.229043
0.0645058
0.0142786
0.00446911
0.000294497
1.27533e-05
3.98096e-07
9.86288e-09
2.08678e-10
3.78858e-12
5.75656e-14
7.0815e-16
6.84956e-18
4.75526e-20
1.86881e-22
2.85793e-26
-4.77013e-54
6.88822e-49
4.18344e-45
2.4885e-45
3.60784e-47
2.86408e-48
2.67122e-44
6.07388e-46
8.31019e-48
7.98291e-50
0.593466
0.229214
0.0646407
0.0143632
0.00453506
0.000307614
1.38571e-05
4.49139e-07
1.11818e-08
2.23192e-10
3.59091e-12
4.57713e-14
4.51967e-16
3.33879e-18
1.71745e-20
1.01437e-22
2.31879e-27
4.15289e-58
6.89277e-51
1.26841e-50
3.27857e-50
8.77513e-52
1.91254e-50
5.91629e-47
1.2099e-48
1.39737e-50
1.8576e-52
0.593585
0.229324
0.0647092
0.0143997
0.00456559
0.000313754
1.43338e-05
4.68656e-07
1.15915e-08
2.25687e-10
3.52034e-12
4.39734e-14
4.33651e-16
3.27583e-18
1.80781e-20
1.29884e-22
2.14651e-26
7.86726e-33
7.25577e-39
4.61649e-39
-1.34965e-45
6.82786e-44
5.21227e-46
1.00458e-50
6.67637e-54
2.83011e-54
1.10543e-49
1.83599e-48
3.14503e-48
1.15716e-48
0.593678
0.229357
0.0647179
0.0144045
0.00457295
0.000315422
1.44323e-05
4.69664e-07
1.14418e-08
2.16896e-10
3.27875e-12
4.00009e-14
3.96034e-16
3.18583e-18
2.09205e-20
1.14854e-22
5.70302e-25
2.93045e-27
1.55791e-29
7.23141e-32
2.72105e-34
8.08369e-37
1.81001e-39
2.92449e-42
3.34706e-45
2.84878e-48
-6.61844e-47
4.9682e-45
4.59782e-45
1.28384e-45
0.593787
0.229376
0.0646934
0.0143889
0.00456719
0.000314574
1.43321e-05
4.6208e-07
1.10779e-08
2.05345e-10
3.02469e-12
3.60668e-14
3.53003e-16
2.87226e-18
1.98136e-20
1.19846e-22
6.65569e-25
3.48286e-27
1.67329e-29
7.09357e-32
2.61769e-34
8.43673e-37
2.39106e-39
6.02505e-42
1.37118e-44
2.87199e-47
-2.27579e-43
7.70188e-42
4.93538e-42
1.11883e-42
0.593872
0.229385
0.0646564
0.0143624
0.00455241
0.000312451
1.41393e-05
4.51331e-07
1.06721e-08
1.94414e-10
2.8102e-12
3.29634e-14
3.19436e-16
2.6028e-18
1.81922e-20
1.11948e-22
6.24648e-25
3.2281e-27
1.53849e-29
6.63388e-32
2.55194e-34
8.83274e-37
3.38206e-39
3.67895e-41
1.07411e-42
8.15616e-44
-7.22817e-39
2.82669e-38
9.9649e-39
1.4783e-39
0.593972
0.229393
0.0646043
0.0143207
0.00452776
0.000308616
1.38396e-05
4.37065e-07
1.02034e-08
1.83256e-10
2.61205e-12
3.02693e-14
2.91895e-16
2.43615e-18
2.09613e-20
3.51546e-22
1.40731e-23
7.08945e-25
3.55949e-26
1.72283e-27
7.99754e-29
3.56063e-30
1.51975e-31
6.23408e-33
2.4561e-34
9.25425e-36
-4.82574e-34
2.40952e-34
3.16789e-35
2.48031e-36
0.594051
0.229437
0.0645624
0.0142668
0.00259979
0.000402214
5.4185e-05
6.47833e-06
6.97523e-07
6.84196e-08
6.17058e-09
5.15698e-10
4.02061e-11
2.94244e-12
2.03364e-13
1.3349e-14
8.36325e-16
5.01785e-17
2.88727e-18
1.59281e-19
8.42049e-21
4.26282e-22
2.06692e-23
9.60125e-25
4.27612e-26
1.82634e-27
7.48456e-29
2.94348e-30
1.11226e-31
4.03197e-33
0.594132
0.229442
0.0645128
0.014226
0.00258233
0.000398932
5.3718e-05
6.42017e-06
6.90919e-07
6.77308e-08
6.10563e-09
5.10228e-10
3.97937e-11
2.91476e-12
2.01605e-13
1.32335e-14
8.27758e-16
4.94729e-17
2.82969e-18
1.54993e-19
8.13028e-21
4.08364e-22
1.96482e-23
9.0573e-25
4.0019e-26
1.69581e-27
6.89439e-29
2.6901e-30
1.00867e-31
3.62853e-33
0.594172
0.229433
0.064479
0.0142036
0.00257384
0.0003967
5.32759e-05
6.34867e-06
6.81003e-07
6.65208e-08
5.97441e-09
4.97198e-10
3.86195e-11
2.81593e-12
1.93814e-13
1.26469e-14
7.85364e-16
4.65454e-17
2.63738e-18
1.43013e-19
7.42421e-21
3.69121e-22
1.75793e-23
8.02279e-25
3.51067e-26
1.47324e-27
5.93289e-29
2.29305e-30
8.51808e-32
3.0379e-33
0.59419
0.229429
0.0644641
0.0141939
0.00257006
0.000395695
5.30761e-05
6.3168e-06
6.76675e-07
6.60069e-08
5.91931e-09
4.91966e-10
3.81488e-11
2.77694e-12
1.90703e-13
1.24119e-14
7.68336e-16
4.53609e-17
2.55896e-18
1.38089e-19
7.13408e-21
3.52931e-22
1.67285e-23
7.59926e-25
3.30964e-26
1.38303e-27
5.54549e-29
2.13468e-30
7.89963e-32
2.80745e-33
0.593161
0.227815
0.063329
0.0137193
0.0024324
0.000365286
4.76565e-05
5.50629e-06
5.72046e-07
5.40922e-08
4.70269e-09
3.79093e-10
2.85406e-11
2.01931e-12
1.34993e-13
8.56558e-15
5.17788e-16
2.99022e-17
1.65287e-18
8.75468e-20
4.44667e-21
2.16622e-22
1.01232e-23
4.53885e-25
1.95285e-26
8.06523e-28
3.19803e-29
1.21823e-30
4.46442e-32
1.57339e-33
0.593166
0.227822
0.0633346
0.0137225
0.00243366
0.000365634
4.77304e-05
5.51895e-06
5.73852e-07
5.43162e-08
4.72735e-09
3.81541e-10
2.87646e-11
2.03849e-12
1.36549e-13
8.68644e-15
5.26783e-16
3.05406e-17
1.69581e-18
9.02713e-20
4.60895e-21
2.25732e-22
1.06064e-23
4.78038e-25
2.06703e-26
8.57718e-28
3.41618e-29
1.3066e-30
4.80602e-32
1.69956e-33
0.593172
0.227835
0.0633459
0.0137292
0.00243621
0.000366349
4.78826e-05
5.54498e-06
5.77604e-07
5.4786e-08
4.77959e-09
3.86787e-10
2.92482e-11
2.08009e-12
1.39943e-13
8.95166e-15
5.47177e-16
3.20689e-17
1.80174e-18
9.70144e-20
5.00757e-21
2.47848e-22
1.17657e-23
5.35596e-25
2.33855e-26
9.79362e-28
3.93552e-29
1.51794e-30
5.62771e-32
2.00503e-33
0.593187
0.227855
0.0633622
0.0137382
0.00244062
0.000366514
4.78182e-05
5.53036e-06
5.75744e-07
5.46107e-08
4.76657e-09
3.85999e-10
2.92135e-11
2.08003e-12
1.40194e-13
9.21548e-15
8.17216e-16
7.98148e-17
5.3314e-18
2.80528e-19
1.34607e-20
6.18931e-22
2.751e-23
1.1813e-24
4.894e-26
1.95436e-27
7.52108e-29
2.78897e-30
9.97416e-32
3.43951e-33
0.593214
0.227886
0.0633827
0.0137541
0.00425035
0.000277806
1.18067e-05
3.5242e-07
7.89502e-09
1.46273e-10
2.95296e-12
1.05352e-13
6.07939e-15
3.86653e-16
2.38559e-17
-1.73353e-16
2.86587e-16
7.66529e-17
4.05067e-18
9.02798e-20
1.14676e-21
9.54578e-24
5.67864e-26
6.83947e-28
9.88018e-29
7.18185e-30
2.61121e-31
1.16163e-32
4.83255e-34
1.87454e-35
0.593229
0.227902
0.0633943
0.0137617
0.00425774
0.000279325
1.19332e-05
3.5782e-07
7.96456e-09
1.3731e-10
1.89409e-12
2.14425e-14
2.03447e-16
1.64906e-18
-8.84907e-16
-7.96973e-13
3.67847e-12
8.51784e-13
4.1838e-14
9.18271e-16
1.22634e-17
1.13244e-19
7.5435e-22
3.86123e-24
1.7213e-26
6.67349e-29
2.01662e-27
6.73361e-29
2.16139e-30
6.66779e-32
0.593244
0.227907
0.0633954
0.0137639
0.00426178
0.000280516
1.20585e-05
3.6511e-07
8.23921e-09
1.44573e-10
2.03504e-12
2.35196e-14
2.27366e-16
1.62851e-18
-2.33902e-12
-7.99656e-10
1.79751e-08
3.66095e-09
1.6472e-10
3.50873e-12
4.88074e-14
4.94539e-16
3.6919e-18
2.31045e-20
1.2501e-22
5.83707e-25
1.66226e-23
5.44483e-25
1.71279e-26
5.17222e-28
0.593254
0.227896
0.0633766
0.0137554
0.00426002
0.000281014
1.21503e-05
3.7197e-07
8.54517e-09
1.53689e-10
2.22829e-12
2.65527e-14
2.63644e-16
-2.36876e-16
-2.58892e-09
1.27388e-06
3.28323e-05
6.15822e-06
2.57541e-07
5.46377e-09
8.22388e-11
9.63113e-13
9.01809e-15
7.0669e-17
4.69266e-19
2.62919e-21
2.92879e-21
9.42133e-23
2.91013e-24
8.62538e-26
0.593263
0.227859
0.0633257
0.0137285
0.00424833
0.000280217
1.21658e-05
3.76872e-07
8.85886e-09
1.65041e-10
2.50071e-12
3.12179e-14
3.22954e-16
-1.00551e-13
-1.2221e-06
0.0018374
-0.00336071
0.00290315
5.23197e-05
8.6891e-07
2.9395e-10
4.78599e-14
8.06924e-17
1.02079e-18
1.77314e-20
1.70799e-22
2.66219e-23
7.79741e-25
2.36127e-26
6.97975e-28
0.593273
0.22778
0.0632262
0.0136725
0.0042201
0.000277022
1.20196e-05
3.76014e-07
9.08832e-09
1.77881e-10
2.87647e-12
3.84916e-14
4.2327e-16
-2.10154e-11
-0.000300476
-0.805162
-1.79778
-3.53692e-08
-8.4444e-14
9.80057e-15
-7.6735e-21
-1.93555e-22
2.60998e-25
2.11693e-26
1.16968e-25
4.19402e-27
6.39568e-26
2.46413e-27
8.64747e-29
2.75652e-30
0.593287
0.227647
0.0630577
0.0135744
0.00416651
0.000269843
1.15677e-05
3.61763e-07
8.99072e-09
1.87913e-10
3.33614e-12
4.99704e-14
6.21921e-16
5.69872e-11
0.00226732
7091.94
295.37
-1.49774e-34
-6.60585e-31
6.99763e-34
1.04948e-33
3.97851e-33
7.79777e-33
7.58421e-29
4.21233e-30
1.88775e-31
6.91902e-33
0.593302
0.227459
0.062813
0.0134264
0.00408047
0.000256936
1.0615e-05
3.2061e-07
7.89566e-09
1.77186e-10
3.5527e-12
5.33053e-14
5.38863e-16
1.9132e-12
7.37534e-05
196.285
12.6428
2.73881e-39
2.5463e-33
1.52664e-32
1.74928e-33
6.66827e-35
1.37569e-36
5.0906e-32
5.2709e-33
3.2004e-34
1.46533e-35
0.593339
0.227235
0.0625166
0.0132399
0.00396489
0.000237822
9.01217e-06
4.19594e-07
1.54827e-09
3.0737e-12
8.2666e-16
8.38454e-18
5.1028e-21
-2.14648e-12
-5.61305e-05
10.9903
0.433275
-3.76874e-36
2.74645e-26
1.74698e-27
7.0322e-30
1.1591e-32
1.14273e-35
3.67387e-34
2.20922e-35
1.11152e-36
5.44659e-38
0.593369
0.227029
0.0622361
0.0130589
0.00384607
0.000216714
7.11113e-06
2.29204e-07
-3.3342e-18
-3.6185e-11
-1.4633e-06
0.0246671
0.00846393
-3.12591e-13
7.54452e-16
3.36914e-18
8.09941e-24
1.127e-20
5.50363e-23
1.45279e-25
2.35025e-28
2.51353e-31
6.87523e-32
7.23243e-34
7.33336e-36
7.47985e-38
0.593389
0.226902
0.0620631
0.0129464
0.00376744
0.000202275
5.91766e-06
1.37191e-07
-7.37043e-15
-1.58766e-09
-5.59599e-07
0.000296867
5.84062e-05
4.08158e-07
2.24975e-09
7.49719e-12
1.65299e-14
3.17568e-17
1.48592e-19
4.41488e-22
7.90804e-25
9.41459e-28
9.84354e-30
1.15742e-31
1.27553e-33
1.34219e-35
0.593391
0.226902
0.0620614
0.0129458
0.00375923
0.000199623
5.70066e-06
1.23795e-07
-2.66008e-18
1.86352e-14
3.16114e-11
1.54739e-08
4.17424e-09
4.04447e-11
2.96438e-13
1.77266e-15
7.31934e-18
2.68042e-20
1.01592e-22
5.11565e-25
1.95664e-27
3.8182e-30
5.51119e-32
6.97813e-34
8.17009e-36
8.96139e-38
0.59337
0.227026
0.0622319
0.0130568
0.00382394
0.00020927
6.40798e-06
1.61368e-07
-1.44274e-21
-1.09381e-18
1.05012e-18
2.78471e-16
-2.78326e-15
-8.34573e-19
9.30581e-21
-6.22611e-21
-1.69029e-22
4.88688e-24
3.88969e-26
1.96532e-28
5.7658e-31
1.00978e-33
1.10207e-34
2.19999e-36
3.21495e-38
3.95185e-40
0.593334
0.227229
0.0625107
0.0132366
0.0039371
0.000228344
8.05885e-06
3.04012e-07
1.31466e-10
1.47153e-19
2.78281e-26
5.97603e-24
-5.16146e-27
1.10753e-24
1.70893e-25
-1.25934e-25
-3.06992e-28
2.79315e-28
9.08561e-27
9.165e-28
-2.98964e-34
3.64193e-29
2.5137e-30
2.38722e-32
8.85227e-35
1.67116e-37
3.03087e-37
7.25753e-39
1.18479e-40
1.5371e-42
0.593307
0.227453
0.0628066
0.0134228
0.00405586
0.000248955
9.89409e-06
2.84277e-07
6.21219e-09
1.28525e-10
1.73257e-12
8.25387e-15
1.2031e-17
2.86075e-20
5.47221e-22
5.34018e-24
6.40355e-28
1.31925e-42
2.12065e-37
3.16011e-35
1.06169e-36
5.7436e-39
1.20632e-41
8.61847e-40
2.07791e-41
3.38681e-43
4.05473e-45
0.593287
0.227644
0.0630511
0.0135707
0.00414859
0.000264364
1.11326e-05
3.43484e-07
8.57077e-09
1.85762e-10
3.56387e-12
5.89236e-14
8.04417e-16
8.86891e-18
7.31688e-20
3.40744e-22
5.23111e-26
-1.30219e-48
1.69186e-44
9.123e-41
1.70683e-41
1.57505e-43
3.66916e-46
1.67283e-42
3.67861e-44
5.37475e-46
4.67903e-48
0.593289
0.227786
0.0632209
0.0136691
0.00420812
0.000273609
1.17841e-05
3.68331e-07
9.00929e-09
1.81481e-10
3.05328e-12
4.26054e-14
4.88368e-16
4.50071e-18
3.10803e-20
2.45129e-22
5.12526e-27
-1.99135e-56
6.26307e-51
6.16408e-47
7.69488e-47
1.42027e-48
2.41198e-50
1.24199e-45
2.22625e-47
6.14303e-49
7.09965e-50
0.593249
0.227856
0.0633219
0.0137251
0.00424083
0.000278139
1.20448e-05
3.74117e-07
8.8918e-09
1.68991e-10
2.62953e-12
3.37525e-14
3.57327e-16
3.09876e-18
2.16275e-20
2.18996e-22
6.59491e-26
3.36073e-32
1.48283e-38
3.97005e-39
-1.9509e-46
9.29228e-46
7.91185e-47
2.40923e-48
3.33211e-51
-2.0937e-52
4.95839e-45
2.05817e-45
4.0336e-46
4.69567e-47
0.593257
0.227878
0.0633701
0.0137527
0.00425469
0.000279768
1.20879e-05
3.71211e-07
8.59789e-09
1.56698e-10
2.30971e-12
2.79857e-14
2.81395e-16
2.36677e-18
1.68459e-20
1.0476e-22
6.03621e-25
3.56948e-27
2.19962e-29
1.15201e-31
4.59042e-34
1.36207e-36
3.04671e-39
5.20385e-42
7.05825e-45
8.09986e-48
3.63348e-42
1.21024e-42
1.95348e-43
2.03605e-44
0.593245
0.227904
0.0633878
0.01376
0.0042579
0.000279714
1.20238e-05
3.64969e-07
8.28174e-09
1.46507e-10
2.0819e-12
2.42866e-14
2.36349e-16
1.94841e-18
1.3878e-20
8.8009e-23
5.19147e-25
2.95365e-27
1.59904e-29
7.96158e-32
3.58793e-34
1.45852e-36
5.34111e-39
1.7634e-41
5.27514e-44
-6.96156e-47
2.67823e-39
6.96495e-40
9.01678e-41
8.18125e-42
0.593231
0.2279
0.0633899
0.0137588
0.00425516
0.000278793
1.19152e-05
3.57907e-07
7.99334e-09
1.3847e-10
1.9207e-12
2.18486e-14
2.07994e-16
1.6875e-18
1.19107e-20
7.48798e-23
4.30183e-25
2.3004e-27
1.14274e-29
5.19973e-32
2.1491e-34
8.16154e-37
3.31659e-39
3.09515e-41
8.278e-43
-5.76298e-43
3.73235e-36
6.49424e-37
6.14012e-38
4.4336e-39
0.593215
0.227883
0.0633781
0.0137511
0.00424878
0.000277446
1.17828e-05
3.50781e-07
7.74046e-09
1.32108e-10
1.80154e-12
2.01556e-14
1.89632e-16
1.56713e-18
1.37868e-20
2.44956e-22
9.94441e-24
4.95227e-25
2.45578e-26
1.17498e-27
5.40759e-29
2.39081e-30
1.01793e-31
4.17406e-33
1.64653e-34
6.24259e-36
9.89294e-33
9.38448e-34
6.00249e-35
3.22377e-36
0.593189
0.227851
0.0633575
0.0137353
0.00243948
0.000366206
4.77515e-05
5.51847e-06
5.73892e-07
5.43586e-08
4.73588e-09
3.82664e-10
2.88869e-11
2.05067e-12
1.37774e-13
8.80929e-15
5.38796e-16
3.16233e-17
1.7838e-18
9.66736e-20
5.0325e-21
2.51462e-22
1.20658e-23
5.55986e-25
2.46223e-26
1.04846e-27
4.29397e-29
1.69163e-30
6.41661e-32
2.34224e-33
0.593174
0.227831
0.063341
0.0137262
0.00243503
0.000366018
4.78096e-05
5.53191e-06
5.75603e-07
5.45179e-08
4.74781e-09
3.83432e-10
2.89214e-11
2.05112e-12
1.37559e-13
8.76922e-15
5.33567e-16
3.10792e-17
1.73588e-18
9.30446e-20
4.78688e-21
2.36404e-22
1.1212e-23